index;name;L-S;smiles;comment;%ee;T;BL32-1;BL1-6;BL6-34;BL5-12;BL12-11;BL33-11;BL11-16;BL16-31;BL6-5;BA32-1-6;BA1-6-34;BA1-6-5;BA6-5-12;BA5-12-11;BA12-11-33;BA5-6-34;BA33-11-16;BA11-16-31;BA12-11-16;DA32-1-6-34;DA32-1-6-5;DA1-6-5-12;DA5-12-11-33;DA12-11-16-31;DA33-11-16-31;DA6-5-12-11;NB32-34;NB33-31;NB1-34;NB33-16;NMR 32;NMR1;NMR6;NMR34;NMR33;NMR11;NMR12;NMR5;NMR16;NMR31;q32;q1;q6;q34;q33;q11;q12;q5;q16;q31;HOMO;LUMO;VF5-12;VF6-34;VF11-33;VF1-32;VF16-31;VI5-12;VI6-34;VI11-33;VI1-32;VI16-31;L1R1;B1R1;B5R1;L1R2;B1R2;B5R2;L1R3;B1R3;B5R3;L1R4;B1R4;B5R4;Area; Vol;PSA; Ovality;MW;dipolemoment;RCx;RCy;RCz;BL12-16S;NMR12-S;NMR16-S;q12-S;q16-S;HOMO-S;LUMO-S;VF12-16S;VI12-16S;Area-S; Vol-S;PSA-S; Ovality-S;MW-S;dipolemoment-S;RCx-S;RCy-S;RCz-S
241;R250;L4-7-S105;c1cc2c(c(c1OP(c1cc(cc(c1)C)C)c1cc(cc(c1)C)C)c1c(ccc3c1cccc3)OP(c1cc(cc(c1)C)C)c1cc(cc(c1)C)C)cccc2.C(=C(\NC(=O)C)/C(=O)OC)\c1c(cccc1)Cl.ClCCl;;90;24;1.89;1.42;1.39;1.49;1.38;1.39;1.42;1.89;1.38;121.47;116.67;124.23;120.61;120.76;118.79;118.9;116.84;121.35;126.32;5.21;169.6;169.69;2.54;168.55;6.88;55.11;3.06;3.06;2.39;2.39;400.09;53.2;35.15;172.22;168.95;32.68;61.85;62.51;55.18;402.59;1.89;-0.55;0.34;-0.83;-0.83;0.34;-0.08;-0.08;-0.55;1.89;-0.26;-0.02;1500.07;1277.65;1277.65;787.23;787.23;52.93;94.94;94.94;28.57;28.57;6.38;4.21;6.49;5.23;1.35;3.89;4.92;1.35;3.98;6.38;4.21;6.49;822.06;885.7;40.55;1.84;865.09;3.54;0.06;0.03;0.03;1.28;6.63;-103.35;0.28;-0.63;-0.27;0;1748.27;128.81;256.54;239.97;44.5;1.37;227.26;3.46;0.81;0.28;0.24
242;R251;L4-7-S115;c1cc2c(c(c1OP(c1cc(cc(c1)C)C)c1cc(cc(c1)C)C)c1c(ccc3c1cccc3)OP(c1cc(cc(c1)C)C)c1cc(cc(c1)C)C)cccc2.C(=C(\NC(=O)C)/C(=O)OC)\c1ccco1.ClCCl;;89;24;1.08;1.41;1.38;1.49;1.38;1.38;1.41;1.08;1.38;118.61;117.19;122.28;119.74;119.06;119;120.48;118.03;118.48;122.92;1.27;176.12;175.41;0.13;178.27;1.04;53.33;2.58;2.59;2.38;2.4;22.98;59.54;33.86;155.57;167.37;37.27;56.33;58.48;62.94;23.54;0.26;-0.27;0.34;-0.83;-0.83;0.31;-0.07;-0.08;-0.28;0.27;-0.24;-0.02;1525.11;1255.47;1280.94;3232.38;3231.97;57.18;94.63;162.07;6.55;2.86;2;1;1;11.99;3.24;8.27;7.04;1.35;10.3;2;1;1;682.39;764.67;13.03;1.69;745.8;1.54;0.09;0.04;0.04;1.32;25.07;-84.8;0.23;-0.47;-0.28;-0.06;1697.09;88.06;237.07;227.53;6.3;1.32;205.26;2;1.75;0.28;0.24
243;R252;L4-7-S2;c1cc2c(c(c1OP(c1cc(cc(c1)C)C)c1cc(cc(c1)C)C)c1c(ccc3c1cccc3)OP(c1cc(cc(c1)C)C)c1cc(cc(c1)C)C)cccc2.C=C(NC(=O)C)C(=O)OC.ClCCl;;94;24;1.5;1.43;1.38;1.49;1.38;1.38;1.42;1.5;1.38;119.09;116.93;122.83;118.97;118.78;119.02;120.22;117.85;119.27;123.11;0.1;177.94;176.04;0.56;179.81;1.61;53.05;2.78;2.8;2.39;2.4;174.92;50.47;34.07;145.81;170.46;35.66;58.5;60.65;50.47;173.89;-0.71;-0.06;0.34;-0.83;-0.83;0.33;-0.07;-0.08;-0.06;-0.72;-0.25;-0.01;1514.86;1268.57;1281.21;1142.19;1133.9;69.11;55.67;224.42;73.62;49.91;2.99;1.5;2.04;9.68;1.35;11.12;10.56;1.66;8.01;2.99;1.5;2.04;661.57;689.16;14.09;1.75;661.72;4.6;0.1;0.04;0.04;1.28;14.48;-112.58;0.33;-0.48;-0.25;-0.01;1763.37;427.31;297.52;280.57;5.08;1.44;237.35;3.28;1.1;0.2;0.19
244;R253;L4-7-S63;c1cc2c(c(c1OP(c1cc(cc(c1)C)C)c1cc(cc(c1)C)C)c1c(ccc3c1cccc3)OP(c1cc(cc(c1)C)C)c1cc(cc(c1)C)C)cccc2.C=C(NC(=O)C)C(=O)O.OC;;86;24;1.09;1.42;1.38;1.49;1.38;1.37;1.42;1.09;1.38;119.05;119.41;121.74;119.49;119.59;123.41;118.85;115;118.03;121.46;1.45;178.37;176.33;3.52;179.51;3.58;64.76;2.63;2.53;2.41;2.35;23.53;62.17;29.12;218.22;229.31;34.18;62.31;61.17;57.77;23.57;0.27;-0.29;0.35;-0.81;-0.82;0.35;-0.09;-0.09;-0.28;0.27;-0.25;-0.02;1103.67;1301.12;1286.35;3224.15;3228.59;82.98;59.08;86.87;8.83;5.89;2;1;1;8.55;1.35;7.91;8.55;1.35;7.91;2;1;1;797.79;828.89;7.56;1.87;766.9;1.52;0.06;0.04;0.04;1.33;61.66;47.91;-0.38;0;-0.31;-0.01;1738.29;229.01;150.24;125.17;46.99;1.24;129.12;6.32;1.02;0.38;0.29
245;R260;L5-2-S117;c1(cc2c(c3-c4c(c(cc5c4cccc5)c4c5ccccc5c5c(c4)C=CC=C5)O[P@@](=O)(Oc13)O)cccc2)c1c2ccccc2c2c(c1)C=CC=C2.C1=C(c2c(cc(c(c2OC)OC)OC)NC1(C)C)C.c1(ccccc1)C;;90;0;1.49;1.42;1.39;1.49;1.38;1.39;1.42;1.49;1.38;120.97;117.08;123.7;119.14;119.14;119.12;119.2;117.17;120.62;130.11;0.18;178.96;177.07;0.54;177.47;2.42;53.07;2.82;2.81;2.4;2.4;48.03;47.19;40.9;183.65;177.79;39.67;60.95;61;47.95;46.64;-0.03;-0.08;0.33;-0.82;-0.83;0.33;-0.07;-0.07;-0.08;-0.03;-0.25;-0.03;1506.25;1280.54;1280.54;1516.58;1516.58;23.3;60.06;60.06;10.89;10.89;8.46;1.52;5.63;5.23;1.35;3.89;4.92;1.35;3.98;8.46;1.52;5.63;654.45;693.04;50.89;1.73;700.73;3.36;0.07;0.04;0.03;1.34;57.94;53.87;-0.24;-0.02;-0.23;0.03;1762.04;59.83;308.69;285.12;17.36;1.47;245.37;0.8;1.07;0.15;0.14
246;R261;L5-2-S118;c1(cc2c(c3-c4c(c(cc5c4cccc5)c4c5ccccc5c5c(c4)C=CC=C5)O[P@@](=O)(Oc13)O)cccc2)c1c2ccccc2c2c(c1)C=CC=C2.C1=C(c2c(cc(c(c2)OC)OC)NC1(C)C)C.c1(ccccc1)C;;88;0;1.49;1.42;1.39;1.49;1.38;1.39;1.42;1.5;1.38;120.43;116.32;123.86;120.18;119.36;118.87;119.71;116.69;120.16;131.9;7.36;176.48;177.12;1;172.77;8.12;49.8;2.8;2.8;2.39;2.39;51.47;48.52;38.95;184.03;178.96;39.02;61.19;61.49;49.67;51.34;-0.06;-0.07;0.33;-0.83;-0.83;0.33;-0.07;-0.07;-0.07;-0.07;-0.26;-0.03;1503.56;1267.49;1273.27;1536.7;1536.7;34.32;16.35;56.47;12.59;12.59;8.48;3.09;5.68;5.23;1.35;3.89;4.92;1.35;3.98;8.48;3.09;5.68;783.2;811.15;42.5;1.86;752.98;4.13;0.06;0.04;0.03;1.28;17.93;-118.34;0.33;-0.47;-0.26;-0.01;1767.3;304.6;271.77;253.41;13.29;1.4;225.29;3.47;1.83;0.17;0.17
247;R262;L5-2-S119;c1(cc2c(c3-c4c(c(cc5c4cccc5)c4c5ccccc5c5c(c4)C=CC=C5)O[P@@](=O)(Oc13)O)cccc2)c1c2ccccc2c2c(c1)C=CC=C2.C1=C(c2c(cc(cc2)OC)NC1(C)C)C.c1(ccccc1)C;;86;0;1.49;1.42;1.39;1.49;1.38;1.39;1.42;1.49;1.38;120.97;117.08;123.7;119.14;119.14;119.12;119.2;117.17;120.62;130.11;0.18;178.96;177.07;0.54;177.47;2.42;53.07;2.82;2.81;2.4;2.4;48.03;47.19;40.9;183.65;177.79;39.67;60.95;61;47.95;46.64;-0.03;-0.08;0.33;-0.82;-0.83;0.33;-0.07;-0.07;-0.08;-0.03;-0.25;-0.03;1506.25;1280.54;1280.54;1516.58;1516.58;23.3;60.06;60.06;10.89;10.89;8.46;1.52;5.63;5.23;1.35;3.89;4.92;1.35;3.98;8.46;1.52;5.63;654.45;693.04;50.89;1.73;700.73;3.36;0.07;0.04;0.03;1.34;57.63;54.24;-0.24;-0.02;-0.23;0.02;1765.43;59.05;247.84;229.99;17.72;1.37;203.28;0.77;1.15;0.38;0.31
248;R263;L5-2-S120;c1(cc2c(c3-c4c(c(cc5c4cccc5)c4c5ccccc5c5c(c4)C=CC=C5)O[P@@](=O)(Oc13)O)cccc2)c1c2ccccc2c2c(c1)C=CC=C2.C1=C(c2c(cc(cc2)OC(C)C)NC1(C)C)C.c1(ccccc1)C;;91;0;1.49;1.42;1.39;1.49;1.38;1.39;1.42;1.49;1.38;120.97;117.08;123.7;119.14;119.14;119.12;119.2;117.17;120.62;130.11;0.18;178.96;177.07;0.54;177.47;2.42;53.07;2.82;2.81;2.4;2.4;48.03;47.19;40.9;183.65;177.79;39.67;60.95;61;47.95;46.64;-0.03;-0.08;0.33;-0.82;-0.83;0.33;-0.07;-0.07;-0.08;-0.03;-0.25;-0.03;1506.25;1280.54;1280.54;1516.58;1516.58;23.3;60.06;60.06;10.89;10.89;8.46;1.52;5.63;5.23;1.35;3.89;4.92;1.35;3.98;8.46;1.52;5.63;654.45;693.04;50.89;1.73;700.73;3.36;0.07;0.04;0.03;1.34;58.25;54.1;-0.24;-0.02;-0.22;0.03;1762.99;64.4;286.01;266.59;17.02;1.43;231.34;0.86;1.01;0.24;0.21
249;R264;L5-2-S121;c1(cc2c(c3-c4c(c(cc5c4cccc5)c4c5ccccc5c5c(c4)C=CC=C5)O[P@@](=O)(Oc13)O)cccc2)c1c2ccccc2c2c(c1)C=CC=C2.C1=C(c2c(cc(cc2)OCCCC)NC1(C)C)C.c1(ccccc1)C;;90;0;1.09;1.42;1.37;1.49;1.38;1.37;1.42;1.09;1.38;118.99;119.28;121.78;119.46;119.67;123.36;118.94;115.05;117.83;121.46;0.93;178.68;176.98;3.31;179.43;3.3;63.66;2.63;2.52;2.41;2.35;23.73;62;29.15;225.52;227.07;33.37;61.51;60.66;57.44;23.63;0.27;-0.29;0.35;-0.8;-0.81;0.35;-0.09;-0.09;-0.27;0.27;-0.25;-0.02;1100.12;1305.45;1283.34;3214.82;3201.38;54.41;90.96;120.03;6.64;3.51;2;1;1;8.55;1.35;7.91;8.55;1.35;7.91;2;1;1;799.25;829.05;6.92;1.87;766.9;1.52;0.06;0.04;0.04;1.34;55.44;55.73;-0.2;0.06;-0.28;-0.03;1751.51;135.49;264;242.7;44.64;1.4;253.69;1.51;0.62;0.28;0.23
250;R265;L5-2-S122;c1(cc2c(c3-c4c(c(cc5c4cccc5)c4c5ccccc5c5c(c4)C=CC=C5)O[P@@](=O)(Oc13)O)cccc2)c1c2ccccc2c2c(c1)C=CC=C2.C1=C(c2c(cc(cc2)OCc2ccccc2)NC1(C)C)C.c1(ccccc1)C;;94;0;1.09;1.41;1.38;1.49;1.38;1.37;1.42;1.09;1.38;118.39;117.82;122.55;118.62;119.08;120.68;119.62;117.82;118.14;122.13;0.06;178.8;178.33;0.62;177.55;0.22;52.28;2.59;2.57;2.39;2.38;23.34;62.07;35.57;146.05;167.21;33.81;60.05;58.99;60.5;23.25;0.27;-0.28;0.32;-0.83;-0.83;0.33;-0.08;-0.09;-0.28;0.27;-0.25;-0.02;1521.67;1252.37;1252.37;3235.76;3237.19;99.89;154.52;154.52;4.27;4.58;2;1;1;8.84;1.47;3.89;4.93;1.35;7.63;2;1;1;408.26;420.03;15.68;1.51;413.46;2.65;0.24;0.11;0.09;1.34;88.87;43.1;-0.5;0.15;-0.27;0.01;1734.2;49.45;203.32;182.53;21.95;1.31;161.2;5.15;2.29;0.5;0.43
251;R266;L5-2-S123;c1(cc2c(c3-c4c(c(cc5c4cccc5)c4c5ccccc5c5c(c4)C=CC=C5)O[P@@](=O)(Oc13)O)cccc2)c1c2ccccc2c2c(c1)C=CC=C2.C1=C(c2c(cc(cc2)OCc2c3ccccc3ccc2)NC1(C)C)C.c1(ccccc1)C;;90;0;1.49;1.42;1.39;1.49;1.38;1.39;1.42;1.5;1.38;120.43;116.32;123.86;120.18;119.36;118.87;119.71;116.69;120.16;131.9;7.36;176.48;177.12;1;172.77;8.12;49.8;2.8;2.8;2.39;2.39;51.47;48.52;38.95;184.03;178.96;39.02;61.19;61.49;49.67;51.34;-0.06;-0.07;0.33;-0.83;-0.83;0.33;-0.07;-0.07;-0.07;-0.07;-0.26;-0.03;1503.56;1267.49;1273.27;1536.7;1536.7;34.32;16.35;56.47;12.59;12.59;8.48;3.09;5.68;5.23;1.35;3.89;4.92;1.35;3.98;8.48;3.09;5.68;783.2;811.15;42.5;1.86;752.98;4.13;0.06;0.04;0.03;1.28;5.33;-116.03;0.35;-0.49;-0.26;0.03;1780.61;257.18;249.49;224.44;13.33;1.4;191.27;3.69;2.02;0.29;0.27
252;R267;L5-2-S124;c1(cc2c(c3-c4c(c(cc5c4cccc5)c4c5ccccc5c5c(c4)C=CC=C5)O[P@@](=O)(Oc13)O)cccc2)c1c2ccccc2c2c(c1)C=CC=C2.C1=C(c2c(cc(c(c2)F)OC)NC1(C)C)C.c1(ccccc1)C;;78;0;1.49;1.42;1.39;1.49;1.38;1.39;1.42;1.48;1.38;121.93;117.47;123.09;119.72;119.58;118.61;119.25;117.59;121.38;126.3;1.05;173.83;171.62;0.2;178.73;0.54;53.75;2.85;2.84;2.41;2.4;43.04;49.8;42.68;184.33;185.61;42.3;59.67;60.7;51.16;43.08;-0.04;-0.08;0.33;-0.83;-0.83;0.33;-0.06;-0.07;-0.08;-0.04;-0.27;-0.04;1567.85;1227.36;1238.23;1505.24;1505.24;30.37;20.67;68.24;27.67;27.67;6.96;2.28;4.9;5.23;1.35;3.89;4.92;1.35;3.98;6.96;2.28;4.9;614.42;616.41;49.73;1.75;772.48;8.36;0.06;0.03;0.03;1.28;12.05;-133.54;0.32;-0.47;-0.25;0;1758.6;235.33;286.88;270.55;13.12;1.42;239.32;1.74;1.36;0.17;0.15
253;R268;L5-2-S125;c1(cc2c(c3-c4c(c(cc5c4cccc5)c4c5ccccc5c5c(c4)C=CC=C5)O[P@@](=O)(Oc13)O)cccc2)c1c2ccccc2c2c(c1)C=CC=C2.C1=C(c2c(cc(c(c2)Cl)OC)NC1(C)C)C.c1(ccccc1)C;;86;0;1.49;1.42;1.39;1.49;1.38;1.39;1.42;1.49;1.38;120.97;117.08;123.7;119.14;119.14;119.12;119.2;117.17;120.62;130.11;0.18;178.96;177.07;0.54;177.47;2.42;53.07;2.82;2.81;2.4;2.4;48.03;47.19;40.9;183.65;177.79;39.67;60.95;61;47.95;46.64;-0.03;-0.08;0.33;-0.82;-0.83;0.33;-0.07;-0.07;-0.08;-0.03;-0.25;-0.03;1506.25;1280.54;1280.54;1516.58;1516.58;23.3;60.06;60.06;10.89;10.89;8.46;1.52;5.63;5.23;1.35;3.89;4.92;1.35;3.98;8.46;1.52;5.63;654.45;693.04;50.89;1.73;700.73;3.36;0.07;0.04;0.03;1.34;55.1;54.59;-0.23;-0.02;-0.23;0.01;1769.51;34.69;263.99;244.04;18.11;1.4;237.73;4.01;0.89;0.29;0.24
254;R269;L5-2-S126;c1(cc2c(c3-c4c(c(cc5c4cccc5)c4c5ccccc5c5c(c4)C=CC=C5)O[P@@](=O)(Oc13)O)cccc2)c1c2ccccc2c2c(c1)C=CC=C2.C1=C(c2c(cc(c(c2)Br)OC)NC1(C)C)C.c1(ccccc1)C;;86;0;1.09;1.41;1.38;1.49;1.38;1.38;1.41;1.08;1.38;118.49;118.13;122.59;118.57;119.32;120.78;119.27;117.08;118.37;122.08;0.06;178.78;178.3;1.39;176.71;0.51;52.7;2.59;2.57;2.39;2.38;23.29;62.28;35.8;162.16;151.78;36.19;60.96;58.97;60.24;23.76;0.27;-0.28;0.32;-0.83;-0.83;0.32;-0.09;-0.08;-0.28;0.27;-0.25;-0.02;1522.69;1279.47;1252.94;3229.41;3243.51;100.07;233.63;101.09;5.97;2.72;2;1;1;5.03;1.35;7.53;10.26;1.92;4.58;2;1;1;427.27;443.34;15.41;1.52;435.46;2.02;0.23;0.11;0.08;1.29;-2.37;60.86;0.43;-0.69;-0.29;-0.06;1735.01;458.09;285.01;265.43;13.48;1.43;245.75;15.11;0.59;0.27;0.21
255;R270;L5-2-S153;c1(cc2c(c3-c4c(c(cc5c4cccc5)c4c5ccccc5c5c(c4)C=CC=C5)O[P@@](=O)(Oc13)O)cccc2)c1c2ccccc2c2c(c1)C=CC=C2.C1=C(c2c(c3c(cc2)cccc3)NC1(C)C)C.c1(ccccc1)C;;65;0;1.52;1.44;1.87;1.5;1.39;1.87;1.44;1.51;1.39;121.74;113.21;118.8;121.83;122.2;113.13;127.56;128.15;120.73;118.72;7.62;179.28;178.81;5.05;170.65;8.76;82.66;3.01;3.38;2.77;2.98;123;45.89;46.43;372.31;380.39;41.17;42.52;41.38;44.4;127.73;-0.12;-0.05;-0.32;0.88;0.89;-0.31;-0.02;-0.04;-0.05;-0.14;-0.25;-0.02;1132.49;1187.56;1178.26;1162.71;1187.56;5.12;1.27;5.2;7.93;1.27;8.04;1.53;5.24;7.12;2.38;5.84;7.12;2.38;5.84;8.04;1.53;5.24;793.7;878.9;10.65;1.79;834.94;2.63;0.06;0.03;0.03;1.34;45.2;58.82;-0.16;0.03;-0.28;-0.03;1738.46;515.55;250.21;229.24;45.26;1.38;219.24;2.52;0.93;0.33;0.27
256;R271;L5-2-S128;c1(cc2c(c3-c4c(c(cc5c4cccc5)c4c5ccccc5c5c(c4)C=CC=C5)O[P@@](=O)(Oc13)O)cccc2)c1c2ccccc2c2c(c1)C=CC=C2.C1=C(c2c(c3c(cc2)ccc(c3)OC)NC1(C)C)C.c1(ccccc1)C;;92;0;1.49;1.42;1.39;1.49;1.38;1.39;1.42;1.49;1.38;120.97;117.08;123.7;119.14;119.14;119.12;119.2;117.17;120.62;130.11;0.18;178.96;177.07;0.54;177.47;2.42;53.07;2.82;2.81;2.4;2.4;48.03;47.19;40.9;183.65;177.79;39.67;60.95;61;47.95;46.64;-0.03;-0.08;0.33;-0.82;-0.83;0.33;-0.07;-0.07;-0.08;-0.03;-0.25;-0.03;1506.25;1280.54;1280.54;1516.58;1516.58;23.3;60.06;60.06;10.89;10.89;8.46;1.52;5.63;5.23;1.35;3.89;4.92;1.35;3.98;8.46;1.52;5.63;654.45;693.04;50.89;1.73;700.73;3.36;0.07;0.04;0.03;1.34;57.91;52.53;-0.24;-0.02;-0.21;0;1762.66;42.06;292.2;280.84;16.07;1.41;253.34;1.59;0.68;0.25;0.19
257;R279;L5-3-S130;c1(cc2c(c3-c4c(c(cc5c4cccc5)[Si](c4ccccc4)(c4ccccc4)c4ccccc4)OP(=O)(Oc13)O)cccc2)[Si](c1ccccc1)(c1ccccc1)c1ccccc1.C(=C)(c1c(cc(cc1)OC)O[Si](C)(C)C)c1ccccc1.ClCCl;;98;24;1.89;1.42;1.4;1.49;1.38;1.39;1.42;1.89;1.38;121.25;116.69;124.35;120.56;120.86;118.68;118.77;116.82;121.3;125.99;6.99;167.89;169.07;2.4;168.33;6.93;55.55;3.05;3.06;2.4;2.4;401.91;54.13;35.71;172.72;171.5;33.26;62.02;62.41;55.54;403.72;1.89;-0.55;0.33;-0.83;-0.83;0.34;-0.08;-0.07;-0.56;1.89;-0.26;-0.03;1498.8;1272.18;1272.18;786.91;786.91;65.57;128.32;128.32;37.77;37.77;6.38;4.21;6.49;5.23;1.35;3.89;4.92;1.35;3.98;6.38;4.21;6.49;825.6;886.42;42.16;1.85;865.09;4.21;0.06;0.03;0.03;1.34;35.84;65.56;-0.06;-0.42;-0.25;-0.01;1714.9;44.4;384.49;368.56;12.17;1.55;324.5;2.81;0.35;0.14;0.11
258;R280;L5-3-S131;c1(cc2c(c3-c4c(c(cc5c4cccc5)[Si](c4ccccc4)(c4ccccc4)c4ccccc4)OP(=O)(Oc13)O)cccc2)[Si](c1ccccc1)(c1ccccc1)c1ccccc1.C(=C)(c1c(cc(cc1)OCc1ccccc1)O[Si](C)(C)C)c1ccccc1.ClCCl;;98;24;1.09;1.41;1.38;1.49;1.38;1.38;1.41;1.09;1.38;118.5;117.86;122.5;118.55;118.62;120.11;119.62;117.86;118.34;122.34;0.3;178.66;178.73;0.87;178.3;0.59;52.85;2.59;2.58;2.39;2.39;23.32;62.09;35.87;141.95;172.27;34.95;59.14;58.58;60.9;23.33;0.27;-0.28;0.32;-0.83;-0.83;0.32;-0.08;-0.09;-0.28;0.27;-0.25;-0.02;1526.07;1384.71;1384.71;3228.01;3224.58;102.04;176.82;176.82;7.88;3.18;2;1;1;11.65;2.09;5.32;4.58;1.35;11.78;2;1;1;466.57;480.84;17.67;1.57;476.52;1.18;0.21;0.06;0.05;1.34;90.82;43.29;-0.51;0.15;-0.25;0.02;1731.24;74.34;232.88;209.46;28.92;1.37;191.23;5.49;2.12;0.28;0.26
259;R281;L5-3-S132;c1(cc2c(c3-c4c(c(cc5c4cccc5)[Si](c4ccccc4)(c4ccccc4)c4ccccc4)OP(=O)(Oc13)O)cccc2)[Si](c1ccccc1)(c1ccccc1)c1ccccc1.C(=C)(c1c(cc(cc1)OCC=C)O[Si](C)(C)C)c1ccccc1.ClCCl;;98;24;1.49;1.43;1.38;1.49;1.38;1.37;1.43;1.49;1.38;121.56;119.48;121.56;120.98;120.03;122.67;118.96;116.11;121.97;121.14;3.49;176.17;175.1;8.46;177.17;5.91;73.91;2.89;2.83;2.43;2.38;44.48;43.48;30.97;228.77;227.93;36.38;59.86;58.22;44.65;44.08;-0.06;-0.08;0.36;-0.81;-0.81;0.36;-0.09;-0.08;-0.07;-0.05;-0.25;-0.02;1050.05;1269.46;1269.46;1211.73;1211.73;61.95;241.46;241.46;98.16;98.16;6.33;1.62;4.37;7.48;1.52;6.53;7.48;1.52;6.53;6.33;1.62;4.37;823.83;917.16;6.67;1.8;862.99;1.12;0.05;0.04;0.03;1.36;84.53;31.02;-0.41;0.25;-0.28;-0.03;1699.34;754.18;276.39;251.93;41.84;1.43;251.26;1.97;0.77;0.22;0.18
260;R282;L5-3-S133;c1(cc2c(c3-c4c(c(cc5c4cccc5)[Si](c4ccccc4)(c4ccccc4)c4ccccc4)OP(=O)(Oc13)O)cccc2)[Si](c1ccccc1)(c1ccccc1)c1ccccc1.C(=C)(c1c(cc(cc1)OCC#C)O[Si](C)(C)C)c1ccccc1.ClCCl;;99;24;1.49;1.43;1.38;1.49;1.38;1.37;1.43;1.49;1.38;121.56;119.48;121.56;120.98;120.03;122.67;118.96;116.11;121.97;121.14;3.49;176.17;175.1;8.46;177.17;5.91;73.91;2.89;2.83;2.43;2.38;44.48;43.48;30.97;228.77;227.93;36.38;59.86;58.22;44.65;44.08;-0.06;-0.08;0.36;-0.81;-0.81;0.36;-0.09;-0.08;-0.07;-0.05;-0.25;-0.02;1050.05;1269.46;1269.46;1211.73;1211.73;61.95;241.46;241.46;98.16;98.16;6.33;1.62;4.37;7.48;1.52;6.53;7.48;1.52;6.53;6.33;1.62;4.37;823.83;917.16;6.67;1.8;862.99;1.12;0.05;0.04;0.03;1.36;85.16;30.23;-0.42;0.25;-0.28;-0.03;1695;777.04;269.82;247.1;42.21;1.42;233.27;4.5;0.78;0.27;0.21
261;R283;L5-3-S134;c1(cc2c(c3-c4c(c(cc5c4cccc5)[Si](c4ccccc4)(c4ccccc4)c4ccccc4)OP(=O)(Oc13)O)cccc2)[Si](c1ccccc1)(c1ccccc1)c1ccccc1.C(=C)(c1c(cc2c(c1)OCO2)O[Si](C)(C)C)c1ccccc1.ClCCl;;97;24;1.5;1.43;1.38;1.49;1.38;1.38;1.42;1.5;1.38;119.09;116.93;122.83;118.97;118.78;119.02;120.22;117.85;119.27;123.11;0.1;177.94;176.04;0.56;179.81;1.61;53.05;2.78;2.8;2.39;2.4;174.92;50.47;34.07;145.81;170.46;35.66;58.5;60.65;50.47;173.89;-0.71;-0.06;0.34;-0.83;-0.83;0.33;-0.07;-0.08;-0.06;-0.72;-0.25;-0.01;1514.86;1268.57;1281.21;1142.19;1133.9;69.11;55.67;224.42;73.62;49.91;2.99;1.5;2.04;9.68;1.35;11.12;10.56;1.66;8.01;2.99;1.5;2.04;661.57;689.16;14.09;1.75;661.72;4.6;0.1;0.04;0.04;1.28;16.74;-119.74;0.33;-0.47;-0.26;-0.05;1766.12;330.39;265.96;247.45;44.45;1.4;240.26;7.8;0.94;0.19;0.17
262;R284;L5-3-S135;c1(cc2c(c3-c4c(c(cc5c4cccc5)[Si](c4ccccc4)(c4ccccc4)c4ccccc4)OP(=O)(Oc13)O)cccc2)[Si](c1ccccc1)(c1ccccc1)c1ccccc1.C(=C)(c1c(cc(cc1)O[Si](C(C)(C)C)(C)C)O)c1ccccc1.ClCCl;;99;24;1.09;1.41;1.38;1.49;1.38;1.37;1.41;1.09;1.38;118.46;117.75;122.5;118.43;118.61;120.13;119.72;117.75;118.3;122.34;0.49;178.65;178.46;0.38;178.49;0.71;52.56;2.59;2.58;2.39;2.39;23.31;61.99;35.48;140.79;169.69;34.53;59.37;58.69;60.91;23.32;0.27;-0.28;0.32;-0.83;-0.83;0.32;-0.08;-0.09;-0.28;0.27;-0.25;-0.02;1525.5;1385.31;1385.31;3225.62;3224.92;99.41;192.88;192.88;5.62;6.31;2;1;1;7.72;2;3.86;4.58;1.35;7.56;2;1;1;392.45;402.63;15.53;1.49;399.43;2.62;0.24;0.13;0.1;1.34;87.83;44.15;-0.49;0.14;-0.27;0;1734.31;52.87;218.94;196.14;21.97;1.34;195.65;3.63;2.11;0.28;0.25
263;R285;L5-3-S136;c1(cc2c(c3-c4c(c(cc5c4cccc5)[Si](c4ccccc4)(c4ccccc4)c4ccccc4)OP(=O)(Oc13)O)cccc2)[Si](c1ccccc1)(c1ccccc1)c1ccccc1.C(=C)(c1ccc(cc1O)OC)c1ccc(cc1)OC.ClCCl;;96;24;1.89;1.42;1.4;1.49;1.38;1.39;1.42;1.89;1.38;121.25;116.69;124.35;120.56;120.86;118.68;118.77;116.82;121.3;125.99;6.99;167.89;169.07;2.4;168.33;6.93;55.55;3.05;3.06;2.4;2.4;401.91;54.13;35.71;172.72;171.5;33.26;62.02;62.41;55.54;403.72;1.89;-0.55;0.33;-0.83;-0.83;0.34;-0.08;-0.07;-0.56;1.89;-0.26;-0.03;1498.8;1272.18;1272.18;786.91;786.91;65.57;128.32;128.32;37.77;37.77;6.38;4.21;6.49;5.23;1.35;3.89;4.92;1.35;3.98;6.38;4.21;6.49;825.6;886.42;42.16;1.85;865.09;4.21;0.06;0.03;0.03;1.34;38.31;68.01;-0.05;-0.43;-0.24;0.01;1723.12;67.81;291.65;275.03;31.68;1.43;256.3;4.5;0.79;0.17;0.15
264;R286;L5-3-S137;c1(cc2c(c3-c4c(c(cc5c4cccc5)[Si](c4ccccc4)(c4ccccc4)c4ccccc4)OP(=O)(Oc13)O)cccc2)[Si](c1ccccc1)(c1ccccc1)c1ccccc1.C(=C)(c1ccc(cc1O)OC)c1ccc(cc1)SC.ClCCl;;98;24;1.5;1.43;1.38;1.49;1.38;1.38;1.42;1.5;1.38;119.09;116.93;122.83;118.97;118.78;119.02;120.22;117.85;119.27;123.11;0.1;177.94;176.04;0.56;179.81;1.61;53.05;2.78;2.8;2.39;2.4;174.92;50.47;34.07;145.81;170.46;35.66;58.5;60.65;50.47;173.89;-0.71;-0.06;0.34;-0.83;-0.83;0.33;-0.07;-0.08;-0.06;-0.72;-0.25;-0.01;1514.86;1268.57;1281.21;1142.19;1133.9;69.11;55.67;224.42;73.62;49.91;2.99;1.5;2.04;9.68;1.35;11.12;10.56;1.66;8.01;2.99;1.5;2.04;661.57;689.16;14.09;1.75;661.72;4.6;0.1;0.04;0.04;1.28;15.54;-124.05;0.33;-0.47;-0.25;-0.01;1772.8;369.33;302.76;283.66;43.63;1.45;268.32;7.68;0.69;0.17;0.16
265;R287;L5-3-S138;c1(cc2c(c3-c4c(c(cc5c4cccc5)[Si](c4ccccc4)(c4ccccc4)c4ccccc4)OP(=O)(Oc13)O)cccc2)[Si](c1ccccc1)(c1ccccc1)c1ccccc1.C(=C)(c1ccc(cc1O[Si](C)(C)C)OC)c1ccc(cc1)OC.ClCCl;;98;24;1.5;1.43;1.38;1.49;1.38;1.38;1.42;1.5;1.38;119.09;116.93;122.83;118.97;118.78;119.02;120.22;117.85;119.27;123.11;0.1;177.94;176.04;0.56;179.81;1.61;53.05;2.78;2.8;2.39;2.4;174.92;50.47;34.07;145.81;170.46;35.66;58.5;60.65;50.47;173.89;-0.71;-0.06;0.34;-0.83;-0.83;0.33;-0.07;-0.08;-0.06;-0.72;-0.25;-0.01;1514.86;1268.57;1281.21;1142.19;1133.9;69.11;55.67;224.42;73.62;49.91;2.99;1.5;2.04;9.68;1.35;11.12;10.56;1.66;8.01;2.99;1.5;2.04;661.57;689.16;14.09;1.75;661.72;4.6;0.1;0.04;0.04;1.28;14.8;-132.59;0.33;-0.46;-0.26;-0.01;1770.92;269.38;302.61;283.64;43.64;1.45;268.32;5.63;1;0.14;0.13