index;name;L-S;smiles;comment;%ee;T;BL32-1;BL1-6;BL6-34;BL5-12;BL12-11;BL33-11;BL11-16;BL16-31;BL6-5;BA32-1-6;BA1-6-34;BA1-6-5;BA6-5-12;BA5-12-11;BA12-11-33;BA5-6-34;BA33-11-16;BA11-16-31;BA12-11-16;DA32-1-6-34;DA32-1-6-5;DA1-6-5-12;DA5-12-11-33;DA12-11-16-31;DA33-11-16-31;DA6-5-12-11;NB32-34;NB33-31;NB1-34;NB33-16;NMR 32;NMR1;NMR6;NMR34;NMR33;NMR11;NMR12;NMR5;NMR16;NMR31;q32;q1;q6;q34;q33;q11;q12;q5;q16;q31;HOMO;LUMO;VF5-12;VF6-34;VF11-33;VF1-32;VF16-31;VI5-12;VI6-34;VI11-33;VI1-32;VI16-31;L1R1;B1R1;B5R1;L1R2;B1R2;B5R2;L1R3;B1R3;B5R3;L1R4;B1R4;B5R4;Area; Vol;PSA; Ovality;MW;dipolemoment;RCx;RCy;RCz;BL12-16S;NMR12-S;NMR16-S;q12-S;q16-S;HOMO-S;LUMO-S;VF12-16S;VI12-16S;Area-S; Vol-S;PSA-S; Ovality-S;MW-S;dipolemoment-S;RCx-S;RCy-S;RCz-S
215;R224;L4-5-S3;c1(cc2c(c(c1OP(c1cc(cc(c1)C)C)c1cc(cc(c1)C)C)c1c(c(cc3c1cccc3)c1ccccc1)OP(c1cc(cc(c1)C)C)c1cc(cc(c1)C)C)cccc2)c1ccccc1.C(=C)(c1ccccc1)NC(=O)C.O1CCCC1;;90.3;24;1.49;1.42;1.38;1.49;1.38;1.36;1.44;1.49;1.38;119.82;118.28;121.96;120.81;121.16;125.16;119.75;113.65;121.87;121.17;2.26;179.34;176.55;7.05;172.66;8.67;86.24;2.82;2.78;2.4;2.34;42.38;43.62;27.89;232.11;215.75;35.9;64.67;58.4;49.44;44.05;-0.06;-0.08;0.36;-0.81;-0.8;0.38;-0.1;-0.09;-0.07;-0.06;-0.25;-0.01;1111.6;1280.29;1280.29;195.27;83.53;13.4;162.66;162.66;195.27;83.53;6.36;1.5;3.15;8.55;1.35;7.91;8.55;1.35;7.91;6.36;1.5;3.15;900.84;989.82;6.96;1.88;919.1;1.78;0.04;0.03;0.03;1.34;84.04;38.68;-0.48;0.15;-0.27;0.01;1736.36;157.22;203.2;182.46;23.73;1.31;161.2;4.14;1.7;0.65;0.54
216;R225;L4-3-S102;c1(cc2c(c(c1OP(c1ccccc1)c1ccccc1)c1c(c(cc3c1cccc3)c1ccccc1)OP(c1ccccc1)c1ccccc1)cccc2)c1ccccc1.C(=C(\NC(=O)C)/C(=O)OC)\c1ccc(cc1)F.c1(ccccc1)C;;93.4;24;1.08;1.42;1.38;1.49;1.38;1.38;1.41;1.09;1.38;118.24;116.39;122.09;119.72;119.02;119.1;121.43;118.12;118.5;122.77;1.82;174.58;172.85;0.71;178.93;0.76;53.26;2.56;2.6;2.37;2.4;23.3;60.96;35.25;144.54;148.47;37.98;58.69;0.09;62.07;23.38;0.28;-0.29;0.33;-0.84;-0.83;0.31;-0.08;-0.09;-0.28;0.28;-0.25;-0.02;1525.6;1253.13;1278.66;3247.6;3232.28;86.69;134.12;189.22;2.22;4.14;2;1;1;6.8;1.35;4.84;4.48;1.35;6.14;2;1;1;382.79;391.99;20.42;1.48;388.4;3.08;0.24;0.16;0.11;1.34;42.3;87.39;0.15;-0.5;-0.26;-0.01;1734.78;47.04;250.47;233.86;22.08;1.36;211.26;5.17;1.68;0.24;0.21
217;R226;L4-3-S103;c1(cc2c(c(c1OP(c1ccccc1)c1ccccc1)c1c(c(cc3c1cccc3)c1ccccc1)OP(c1ccccc1)c1ccccc1)cccc2)c1ccccc1.C(=C(\NC(=O)C)/C(=O)OC)\c1ccc(cc1)OC.c1(ccccc1)C;;87.2;24;1.49;1.43;1.38;1.49;1.38;1.36;1.44;1.49;1.38;120.02;118.38;121.94;120.1;120.23;123.64;119.54;114.79;122.14;121.49;6.16;178.26;175.58;5.46;173.14;9.92;79.75;2.83;2.81;2.41;2.36;43.03;42.76;29.13;235.07;222.47;35.5;62.22;57.72;48.74;44;-0.06;-0.08;0.37;-0.81;-0.81;0.37;-0.1;-0.08;-0.07;-0.06;-0.25;-0.01;1113.68;1285;1285;1337.08;1337.08;3.74;98.12;98.12;17.66;17.66;6.36;1.5;3.15;7.48;1.52;6.53;7.48;1.52;6.53;6.36;1.5;3.15;762.46;845.38;6.56;1.76;806.88;1.18;0.06;0.04;0.04;1.35;47.14;61.96;-0.16;0.02;-0.26;-0.03;1740.44;137.55;279.99;256.57;51.76;1.43;249.27;4.08;0.86;0.2;0.17
218;R227;L4-3-S104;c1(cc2c(c(c1OP(c1ccccc1)c1ccccc1)c1c(c(cc3c1cccc3)c1ccccc1)OP(c1ccccc1)c1ccccc1)cccc2)c1ccccc1.C(=C(\NC(=O)C)/C(=O)OC)\c1cccc(c1)Br.c1(ccccc1)C;;92.6;24;1.49;1.43;1.38;1.49;1.38;1.36;1.44;1.49;1.38;120.02;118.38;121.94;120.1;120.23;123.64;119.54;114.79;122.14;121.49;6.16;178.26;175.58;5.46;173.14;9.92;79.75;2.83;2.81;2.41;2.36;43.03;42.76;29.13;235.07;222.47;35.5;62.22;57.72;48.74;44;-0.06;-0.08;0.37;-0.81;-0.81;0.37;-0.1;-0.08;-0.07;-0.06;-0.25;-0.01;1113.68;1285;1285;1337.08;1337.08;3.74;98.12;98.12;17.66;17.66;6.36;1.5;3.15;7.48;1.52;6.53;7.48;1.52;6.53;6.36;1.5;3.15;762.46;845.38;6.56;1.76;806.88;1.18;0.06;0.04;0.04;1.34;54.08;56.81;-0.2;0.05;-0.28;-0.04;1752.05;107.03;270.12;247.62;44.38;1.42;298.14;3.96;0.62;0.18;0.16
219;R228;L4-3-S105;c1(cc2c(c(c1OP(c1ccccc1)c1ccccc1)c1c(c(cc3c1cccc3)c1ccccc1)OP(c1ccccc1)c1ccccc1)cccc2)c1ccccc1.C(=C(\NC(=O)C)/C(=O)OC)\c1c(cccc1)Cl.c1(ccccc1)C;;81.5;24;1.49;1.43;1.38;1.49;1.38;1.36;1.44;1.49;1.38;120.02;118.38;121.94;120.1;120.23;123.64;119.54;114.79;122.14;121.49;6.16;178.26;175.58;5.46;173.14;9.92;79.75;2.83;2.81;2.41;2.36;43.03;42.76;29.13;235.07;222.47;35.5;62.22;57.72;48.74;44;-0.06;-0.08;0.37;-0.81;-0.81;0.37;-0.1;-0.08;-0.07;-0.06;-0.25;-0.01;1113.68;1285;1285;1337.08;1337.08;3.74;98.12;98.12;17.66;17.66;6.36;1.5;3.15;7.48;1.52;6.53;7.48;1.52;6.53;6.36;1.5;3.15;762.46;845.38;6.56;1.76;806.88;1.18;0.06;0.04;0.04;1.34;56.54;56.17;-0.2;0.06;-0.28;-0.03;1752.53;83.57;263.73;242.62;44.43;1.4;253.69;1.33;0.62;0.28;0.23
220;R229;L4-3-S106;c1(cc2c(c(c1OP(c1ccccc1)c1ccccc1)c1c(c(cc3c1cccc3)c1ccccc1)OP(c1ccccc1)c1ccccc1)cccc2)c1ccccc1.C(=C(\NC(=O)C)/C(=O)OC)\c1ccc2c(c1)cccc2.c1(ccccc1)C;;97.3;24;1.49;1.43;1.38;1.49;1.38;1.36;1.44;1.49;1.38;120.02;118.38;121.94;120.1;120.23;123.64;119.54;114.79;122.14;121.49;6.16;178.26;175.58;5.46;173.14;9.92;79.75;2.83;2.81;2.41;2.36;43.03;42.76;29.13;235.07;222.47;35.5;62.22;57.72;48.74;44;-0.06;-0.08;0.37;-0.81;-0.81;0.37;-0.1;-0.08;-0.07;-0.06;-0.25;-0.01;1113.68;1285;1285;1337.08;1337.08;3.74;98.12;98.12;17.66;17.66;6.36;1.5;3.15;7.48;1.52;6.53;7.48;1.52;6.53;6.36;1.5;3.15;762.46;845.38;6.56;1.76;806.88;1.18;0.06;0.04;0.04;1.35;50.16;58.86;-0.18;0.04;-0.26;-0.04;1748.05;123.24;296.5;280.71;44.48;1.43;269.3;1.87;0.73;0.18;0.15
221;R230;L4-3-S107;c1(cc2c(c(c1OP(c1ccccc1)c1ccccc1)c1c(c(cc3c1cccc3)c1ccccc1)OP(c1ccccc1)c1ccccc1)cccc2)c1ccccc1.C=C(NC(=O)C)c1ccc(cc1)C(F)(F)F.O1CCCC1;;95.7;24;1.49;1.42;1.38;1.49;1.38;1.36;1.44;1.49;1.38;119.89;118.54;121.95;120.07;121.24;125.48;119.5;113.38;122.01;121.13;4.04;177.26;175.54;4.4;173.73;7.56;88.45;2.83;2.78;2.41;2.34;42.83;43.89;28.03;233.67;212.14;36.2;66.33;58.15;50.27;44.48;-0.06;-0.08;0.36;-0.81;-0.8;0.38;-0.11;-0.09;-0.07;-0.06;-0.25;-0.01;1111.83;1280.38;1280.38;1332.87;1332.87;14.73;156.21;156.21;26.89;26.89;6.36;1.5;3.15;7.48;1.52;6.53;7.48;1.52;6.53;6.36;1.5;3.15;763.3;846.47;6.88;1.76;806.88;1.34;0.06;0.04;0.04;1.34;80.78;39.34;-0.47;0.15;-0.28;-0.01;1737.11;128.22;238.41;214.18;23.76;1.38;229.2;7.13;1.16;0.25;0.23
222;R231;L4-3-S108;c1(cc2c(c(c1OP(c1ccccc1)c1ccccc1)c1c(c(cc3c1cccc3)c1ccccc1)OP(c1ccccc1)c1ccccc1)cccc2)c1ccccc1.C=C(NC(=O)C)c1cccc(c1)C.O1CCCC1;;96.3;24;1.49;1.42;1.38;1.49;1.38;1.36;1.44;1.49;1.38;119.89;118.54;121.95;120.07;121.24;125.48;119.5;113.38;122.01;121.13;4.04;177.26;175.54;4.4;173.73;7.56;88.45;2.83;2.78;2.41;2.34;42.83;43.89;28.03;233.67;212.14;36.2;66.33;58.15;50.27;44.48;-0.06;-0.08;0.36;-0.81;-0.8;0.38;-0.11;-0.09;-0.07;-0.06;-0.25;-0.01;1111.83;1280.38;1280.38;1332.87;1332.87;14.73;156.21;156.21;26.89;26.89;6.36;1.5;3.15;7.48;1.52;6.53;7.48;1.52;6.53;6.36;1.5;3.15;763.3;846.47;6.88;1.76;806.88;1.34;0.06;0.04;0.04;1.34;82.66;38.34;-0.48;0.15;-0.27;0.01;1736.43;133.46;223.19;200.69;23.92;1.35;175.23;4.07;1.19;0.58;0.45
223;R232;L4-3-S109;c1(cc2c(c(c1OP(c1ccccc1)c1ccccc1)c1c(c(cc3c1cccc3)c1ccccc1)OP(c1ccccc1)c1ccccc1)cccc2)c1ccccc1.C=C(NC(=O)C)c1ccc(cc1)c1ccccc1.O1CCCC1;;94.2;24;1.08;1.41;1.38;1.49;1.38;1.39;1.41;1.08;1.38;118.51;118.19;122.63;118.64;119.36;119.99;119.17;117.01;118.54;122.97;0.42;178.74;177.72;0.8;178.81;0.85;52.99;2.6;2.58;2.4;2.39;23.29;62.34;37.69;148.9;159.35;36.33;59.72;8.49;61.26;23.19;0.27;-0.28;0.31;-0.84;-0.83;0.32;-0.08;-0.08;-0.27;0.28;-0.25;-0.02;1524.13;1278.68;1248.65;3235.85;3252.78;86.87;208.5;117.51;5.32;2.62;2;1;1;9.92;1.35;5.86;9.91;1.35;5.23;2;1;1;418.32;422.2;22.09;1.54;422.42;1.34;0.25;0.09;0.07;1.34;42.65;89.35;0.15;-0.5;-0.27;0.01;1733.89;52.63;203.37;182.54;21.95;1.31;161.2;5.17;2.3;0.5;0.43
224;R233;L4-3-S80;c1(cc2c(c(c1OP(c1ccccc1)c1ccccc1)c1c(c(cc3c1cccc3)c1ccccc1)OP(c1ccccc1)c1ccccc1)cccc2)c1ccccc1.C(=C(\C(=O)O)/C)(/CC(=O)OC)\C.O1CCCC1;;94.1;24;1.49;1.42;1.38;1.49;1.38;1.36;1.44;1.49;1.38;119.89;118.54;121.95;120.07;121.24;125.48;119.5;113.38;122.01;121.13;4.04;177.26;175.54;4.4;173.73;7.56;88.45;2.83;2.78;2.41;2.34;42.83;43.89;28.03;233.67;212.14;36.2;66.33;58.15;50.27;44.48;-0.06;-0.08;0.36;-0.81;-0.8;0.38;-0.11;-0.09;-0.07;-0.06;-0.25;-0.01;1111.83;1280.38;1280.38;1332.87;1332.87;14.73;156.21;156.21;26.89;26.89;6.36;1.5;3.15;7.48;1.52;6.53;7.48;1.52;6.53;6.36;1.5;3.15;763.3;846.47;6.88;1.76;806.88;1.34;0.06;0.04;0.04;1.34;80.67;38.82;-0.47;0.15;-0.25;-0.01;1739.16;133.41;250.16;233.73;24.06;1.36;211.26;4.14;1.02;0.33;0.28
225;R234;L4-6-S59;c1cc2c(c(c1OP1[C@@H](CC[C@H]1C)C)c1c(ccc3c1cccc3)OP1[C@@H](CC[C@H]1C)C)cccc2.C(=C(\NC(=O)C)/C(=O)OC)\c1ccccc1.ClCCl;;74;24;1.49;1.42;1.39;1.49;1.38;1.39;1.42;1.48;1.38;121.93;117.47;123.09;119.72;119.58;118.61;119.25;117.59;121.38;126.3;1.05;173.83;171.62;0.2;178.73;0.54;53.75;2.85;2.84;2.41;2.4;43.04;49.8;42.68;184.33;185.61;42.3;59.67;60.7;51.16;43.08;-0.04;-0.08;0.33;-0.83;-0.83;0.33;-0.06;-0.07;-0.08;-0.04;-0.27;-0.04;1567.85;1227.36;1238.23;1505.24;1505.24;30.37;20.67;68.24;27.67;27.67;6.96;2.28;4.9;5.23;1.35;3.89;4.92;1.35;3.98;6.96;2.28;4.9;614.42;616.41;49.73;1.75;772.48;8.36;0.06;0.03;0.03;1.28;18.09;-119.42;0.32;-0.47;-0.26;-0.02;1762.12;337.66;351.22;336.73;13.28;1.5;301.39;3.33;1.3;0.07;0.07
226;R235;L4-6-S2;c1cc2c(c(c1OP1[C@@H](CC[C@H]1C)C)c1c(ccc3c1cccc3)OP1[C@@H](CC[C@H]1C)C)cccc2.C=C(NC(=O)C)C(=O)OC.ClCCl;;84;24;1.5;1.43;1.38;1.49;1.38;1.38;1.42;1.5;1.38;119.09;116.93;122.83;118.97;118.78;119.02;120.22;117.85;119.27;123.11;0.1;177.94;176.04;0.56;179.81;1.61;53.05;2.78;2.8;2.39;2.4;174.92;50.47;34.07;145.81;170.46;35.66;58.5;60.65;50.47;173.89;-0.71;-0.06;0.34;-0.83;-0.83;0.33;-0.07;-0.08;-0.06;-0.72;-0.25;-0.01;1514.86;1268.57;1281.21;1142.19;1133.9;69.11;55.67;224.42;73.62;49.91;2.99;1.5;2.04;9.68;1.35;11.12;10.56;1.66;8.01;2.99;1.5;2.04;661.57;689.16;14.09;1.75;661.72;4.6;0.1;0.04;0.04;1.28;-0.53;-109.43;0.36;-0.5;-0.29;-0.06;1780.75;337.76;254.57;233.32;5.97;1.39;189.3;3.14;1.24;0.45;0.37
227;R236;L4-6-S63;c1cc2c(c(c1OP1[C@@H](CC[C@H]1C)C)c1c(ccc3c1cccc3)OP1[C@@H](CC[C@H]1C)C)cccc2.C=C(NC(=O)C)C(=O)O.OC;;21;24;1.09;1.42;1.37;1.49;1.38;1.38;1.42;1.09;1.38;119.35;120.41;121.42;119.19;119.94;119.46;118.07;118.8;118.5;121.74;4.29;179.66;178.44;2.86;179.67;1.01;100.3;2.66;2.61;2.42;2.4;23.13;62.16;30.99;221.75;227.09;28.06;57.28;59.07;52.11;23.39;0.27;-0.3;0.34;-0.82;-0.83;0.33;-0.08;-0.09;-0.08;0.27;-0.25;-0.01;1099.35;1275.05;1262.78;3219.89;3217.55;56.99;250.5;297.02;19.48;5.05;2;1;1;5.64;1.35;5.5;5.64;1.35;5.5;2;1;1;533.67;545.43;11.14;1.65;514.59;2.77;0.12;0.1;0.09;1.33;61.66;47.91;-0.38;0;-0.31;-0.01;1738.29;229.01;150.24;125.17;46.99;1.24;129.12;10.36;3.09;1.18;0.88
228;R237;L4-6-S110;c1cc2c(c(c1OP1[C@@H](CC[C@H]1C)C)c1c(ccc3c1cccc3)OP1[C@@H](CC[C@H]1C)C)cccc2.C=C(C(F)(F)F)OC(=O)C.ClCCl;;67;24;1.09;1.41;1.38;1.49;1.38;1.38;1.41;1.08;1.38;118.6;118.75;122.64;118.66;120.56;121.52;118.6;116.33;118.33;121.95;1.78;178.83;176.93;0.58;177.41;2.45;52.88;2.61;2.56;2.4;2.38;23.14;61.9;37.55;140.19;179.02;35.3;60.09;57.45;61.41;25.77;0.27;-0.27;0.31;-0.82;-0.83;0.33;-0.08;-0.08;-0.26;0.27;-0.25;-0.02;1523.41;1277.22;1248.64;3242.28;3248.91;85.85;140.56;110.41;3.89;6.35;2;1;1;7.5;1.35;10.2;10.27;3.32;8.89;2;1;1;616.73;678.57;14.88;1.65;667.68;2.07;0.09;0.05;0.04;1.31;23.18;-90.11;0.25;-0.48;-0.26;0.04;1663.45;25.31;177.03;162.32;7.03;1.23;143.19;2.17;2.8;0.86;0.66
229;R238;L4-6-S1;c1cc2c(c(c1OP1[C@@H](CC[C@H]1C)C)c1c(ccc3c1cccc3)OP1[C@@H](CC[C@H]1C)C)cccc2.C=C(CC(=O)OC)C(=O)OC.OC;;37.9;24;1.09;1.42;1.37;1.49;1.38;1.38;1.42;1.09;1.38;119.35;120.41;121.42;119.19;119.94;119.46;118.07;118.8;118.5;121.74;4.29;179.66;178.44;2.86;179.67;1.01;100.3;2.66;2.61;2.42;2.4;23.13;62.16;30.99;221.75;227.09;28.06;57.28;59.07;52.11;23.39;0.27;-0.3;0.34;-0.82;-0.83;0.33;-0.08;-0.09;-0.08;0.27;-0.25;-0.01;1099.35;1275.05;1262.78;3219.89;3217.55;56.99;250.5;297.02;19.48;5.05;2;1;1;5.64;1.35;5.5;5.64;1.35;5.5;2;1;1;533.67;545.43;11.14;1.65;514.59;2.77;0.12;0.1;0.09;1.33;49.81;48.66;-0.35;-0.16;-0.33;0;1750.32;104.01;191.51;161.8;39.34;1.33;158.15;2.38;2.09;0.65;0.55
230;R239;L4-6-S1;c1cc2c(c(c1OP1[C@@H](CC[C@H]1C)C)c1c(ccc3c1cccc3)OP1[C@@H](CC[C@H]1C)C)cccc2.C=C(CC(=O)OC)C(=O)OC.O(CC)C(=O)C;;84.6;24;1.09;1.42;1.37;1.49;1.38;1.37;1.42;1.09;1.38;119.06;119.76;121.44;119.22;119.84;119.37;118.74;119.08;118.42;121.53;2.58;179.84;178.95;3.22;179.76;0.96;87.74;2.64;2.61;2.41;2.4;23.19;62.6;30.58;221.22;221.1;27.7;57.18;57.36;53;23.39;0.26;-0.29;0.34;-0.81;-0.81;0.34;-0.08;-0.08;-0.08;0.27;-0.25;-0.01;1103.73;1304.84;1295.51;3215.59;3216.41;59.55;55.33;53.62;8.34;5.55;2;1;1;5.64;1.35;5.5;5.64;1.35;5.5;2;1;1;536.48;545.92;10.14;1.66;514.59;2.16;0.11;0.1;0.09;1.33;53.99;46.9;-0.36;-0.15;-0.33;0;1757.09;27.8;191.58;161.77;39.53;1.33;158.15;1.65;2.06;0.65;0.56
231;R240;L4-6-S1;c1cc2c(c(c1OP1[C@@H](CC[C@H]1C)C)c1c(ccc3c1cccc3)OP1[C@@H](CC[C@H]1C)C)cccc2.C=C(CC(=O)OC)C(=O)OC.O1CCCC1;;90.7;24;1.09;1.42;1.37;1.49;1.38;1.37;1.42;1.09;1.38;119.07;119.77;121.44;119.22;119.83;119.36;118.73;119.09;118.43;121.54;2.55;179.83;179;3.22;179.75;0.92;87.69;2.64;2.61;2.41;2.4;23.16;62.53;30.54;221.2;221.06;27.67;57.18;57.41;52.9;23.37;0.26;-0.29;0.34;-0.81;-0.81;0.34;-0.08;-0.08;-0.08;0.27;-0.25;-0.01;1103.52;1304.65;1295.29;3216.04;3216.25;60.98;57.84;57.8;9.49;4.44;2;1;1;5.64;1.35;5.5;5.64;1.35;5.5;2;1;1;536.52;545.92;10.14;1.66;514.59;2.25;0.11;0.1;0.09;1.33;53.83;46.89;-0.36;-0.15;-0.33;0;1756.63;28.95;191.59;161.78;39.54;1.33;158.15;1.68;2.06;0.65;0.56
232;R241;L4-7-S59;c1cc2c(c(c1OP(c1cc(cc(c1)C)C)c1cc(cc(c1)C)C)c1c(ccc3c1cccc3)OP(c1cc(cc(c1)C)C)c1cc(cc(c1)C)C)cccc2.C(=C(\NC(=O)C)/C(=O)OC)\c1ccccc1.OC;;83;24;1.09;1.42;1.38;1.49;1.38;1.37;1.42;1.09;1.38;119.05;119.41;121.74;119.49;119.59;123.41;118.85;115;118.03;121.46;1.45;178.37;176.33;3.52;179.51;3.58;64.76;2.63;2.53;2.41;2.35;23.53;62.17;29.12;218.22;229.31;34.18;62.31;61.17;57.77;23.57;0.27;-0.29;0.35;-0.81;-0.82;0.35;-0.09;-0.09;-0.28;0.27;-0.25;-0.02;1103.67;1301.12;1286.35;3224.15;3228.59;82.98;59.08;86.87;8.83;5.89;2;1;1;8.55;1.35;7.91;8.55;1.35;7.91;2;1;1;797.79;828.89;7.56;1.87;766.9;1.63;0.06;0.04;0.04;1.34;45.2;58.82;-0.16;0.03;-0.28;-0.03;1738.46;515.44;250.21;229.24;45.26;1.38;219.24;2.52;0.93;0.33;0.27
233;R242;L4-7-S59;c1cc2c(c(c1OP(c1cc(cc(c1)C)C)c1cc(cc(c1)C)C)c1c(ccc3c1cccc3)OP(c1cc(cc(c1)C)C)c1cc(cc(c1)C)C)cccc2.C(=C(\NC(=O)C)/C(=O)OC)\c1ccccc1.OCC;;85;24;1.09;1.42;1.38;1.49;1.38;1.37;1.42;1.09;1.38;119.01;119.26;121.85;119.47;119.6;123.45;118.89;114.95;117.97;121.47;1.23;178.64;176.29;3.21;179.35;3.37;64.31;2.63;2.52;2.41;2.35;23.67;62.15;29.23;225.63;228.59;33.85;62.28;60.84;57.72;23.62;0.27;-0.29;0.35;-0.81;-0.81;0.35;-0.09;-0.09;-0.28;0.27;-0.25;-0.02;1103.2;1300.19;1286.21;3225.86;3228.1;82.61;66.7;90.93;6.18;6.35;2;1;1;8.55;1.35;7.91;8.55;1.35;7.91;2;1;1;797.28;828.83;7.16;1.87;766.9;1.66;0.06;0.04;0.04;1.34;46.19;58.63;-0.17;0.04;-0.28;-0.03;1740.7;361.39;250.18;229.27;45.18;1.38;219.24;2.42;0.93;0.33;0.27
234;R243;L4-7-S59;c1cc2c(c(c1OP(c1cc(cc(c1)C)C)c1cc(cc(c1)C)C)c1c(ccc3c1cccc3)OP(c1cc(cc(c1)C)C)c1cc(cc(c1)C)C)cccc2.C(=C(\NC(=O)C)/C(=O)OC)\c1ccccc1.O1CCCC1;;87;24;1.09;1.41;1.38;1.49;1.38;1.38;1.41;1.08;1.38;118.49;118.13;122.59;118.57;119.32;120.78;119.27;117.08;118.37;122.08;0.06;178.78;178.3;1.39;176.71;0.51;52.7;2.59;2.57;2.39;2.38;23.29;62.28;35.8;162.16;151.78;36.19;60.96;58.97;60.24;23.76;0.27;-0.28;0.32;-0.83;-0.83;0.32;-0.09;-0.08;-0.28;0.27;-0.25;-0.02;1522.69;1279.47;1252.94;3229.41;3243.51;100.07;233.63;101.09;5.97;2.72;2;1;1;5.03;1.35;7.53;10.26;1.92;4.58;2;1;1;427.27;443.34;15.41;1.52;435.46;2.02;0.23;0.11;0.08;1.29;0.1;54.9;0.43;-0.68;-0.29;-0.06;1748.75;515.14;264.41;243.43;14.12;1.4;252.14;16.87;0.51;0.3;0.21
235;R244;L4-7-S59;c1cc2c(c(c1OP(c1cc(cc(c1)C)C)c1cc(cc(c1)C)C)c1c(ccc3c1cccc3)OP(c1cc(cc(c1)C)C)c1cc(cc(c1)C)C)cccc2.C(=C(\NC(=O)C)/C(=O)OC)\c1ccccc1.ClCCl;;92;24;1.49;1.42;1.39;1.49;1.38;1.39;1.42;1.5;1.38;120.43;116.32;123.86;120.18;119.36;118.87;119.71;116.69;120.16;131.9;7.36;176.48;177.12;1;172.77;8.12;49.8;2.8;2.8;2.39;2.39;51.47;48.52;38.95;184.03;178.96;39.02;61.19;61.49;49.67;51.34;-0.06;-0.07;0.33;-0.83;-0.83;0.33;-0.07;-0.07;-0.07;-0.07;-0.26;-0.03;1503.56;1267.49;1273.27;1536.7;1536.7;34.32;16.35;56.47;12.59;12.59;8.48;3.09;5.68;5.23;1.35;3.89;4.92;1.35;3.98;8.48;3.09;5.68;783.2;811.15;42.5;1.86;752.98;4.13;0.06;0.04;0.03;1.28;10.07;-133.94;0.33;-0.47;-0.26;0;1757.34;294.3;309.19;289.34;13.82;1.46;253.34;3.83;1.27;0.14;0.13
236;R245;L4-7-S103;c1cc2c(c(c1OP(c1cc(cc(c1)C)C)c1cc(cc(c1)C)C)c1c(ccc3c1cccc3)OP(c1cc(cc(c1)C)C)c1cc(cc(c1)C)C)cccc2.C(=C(\NC(=O)C)/C(=O)OC)\c1ccc(cc1)OC.ClCCl;;91;24;1.09;1.42;1.37;1.49;1.38;1.37;1.42;1.09;1.38;118.99;119.28;121.78;119.46;119.67;123.36;118.94;115.05;117.83;121.46;0.93;178.68;176.98;3.31;179.43;3.3;63.66;2.63;2.52;2.41;2.35;23.73;62;29.15;225.52;227.07;33.37;61.51;60.66;57.44;23.63;0.27;-0.29;0.35;-0.8;-0.81;0.35;-0.09;-0.09;-0.27;0.27;-0.25;-0.02;1100.12;1305.45;1283.34;3214.82;3201.38;54.41;90.96;120.03;6.64;3.51;2;1;1;8.55;1.35;7.91;8.55;1.35;7.91;2;1;1;799.25;829.05;6.92;1.87;766.9;1.52;0.06;0.04;0.04;1.35;50.35;58;-0.18;0.04;-0.27;-0.03;1747;185.04;265.69;243.17;44.72;1.41;253.69;3.28;0.89;0.19;0.17
237;R246;L4-7-S111;c1cc2c(c(c1OP(c1cc(cc(c1)C)C)c1cc(cc(c1)C)C)c1c(ccc3c1cccc3)OP(c1cc(cc(c1)C)C)c1cc(cc(c1)C)C)cccc2.C(=C(\NC(=O)C)/C(=O)OC)\c1ccc(cc1)C.ClCCl;;92;24;1.09;1.41;1.38;1.49;1.38;1.38;1.41;1.08;1.38;118.49;118.13;122.59;118.57;119.32;120.78;119.27;117.08;118.37;122.08;0.06;178.78;178.3;1.39;176.71;0.51;52.7;2.59;2.57;2.39;2.38;23.29;62.28;35.8;162.16;151.78;36.19;60.96;58.97;60.24;23.76;0.27;-0.28;0.32;-0.83;-0.83;0.32;-0.09;-0.08;-0.28;0.27;-0.25;-0.02;1522.69;1279.47;1252.94;3229.41;3243.51;100.07;233.63;101.09;5.97;2.72;2;1;1;5.03;1.35;7.53;10.26;1.92;4.58;2;1;1;427.27;443.34;15.41;1.52;435.46;2.02;0.23;0.11;0.08;1.29;1.11;59.02;0.42;-0.68;-0.28;-0.06;1746.89;496.79;284.25;261.62;14.11;1.44;266.17;17.03;0.43;0.25;0.18
238;R247;L4-7-S112;c1cc2c(c(c1OP(c1cc(cc(c1)C)C)c1cc(cc(c1)C)C)c1c(ccc3c1cccc3)OP(c1cc(cc(c1)C)C)c1cc(cc(c1)C)C)cccc2.C(=C(\NC(=O)C)/C(=O)OC)\c1ccc(cc1)OC(=O)C.ClCCl;;90;24;1.08;1.41;1.37;1.49;1.38;1.38;1.41;1.08;1.38;117.99;116.58;122.18;120.17;119.61;119.58;120.9;117.56;118.27;122.86;5.49;178.81;175.72;4.81;178.11;1.97;51.55;2.55;2.58;2.37;2.39;23.09;59.21;34.83;147.65;166.03;36.09;57.55;61.66;62.6;23.63;0.27;-0.27;0.34;-0.83;-0.82;0.31;-0.07;-0.09;-0.28;0.27;-0.25;-0.01;1522.89;1250.55;1278.28;3237.53;3224.41;96.98;41.69;254.04;2.91;4.9;2;1;1;10.93;3.97;8.27;11.84;3.61;8.55;2;1;1;648.77;713.86;15.01;1.68;695.74;2.38;0.08;0.05;0.04;1.32;25.07;-84.8;0.23;-0.47;-0.28;-0.06;1697.09;88.06;237.07;227.53;6.3;1.32;205.26;2;1.75;0.28;0.24
239;R248;L4-7-S113;c1cc2c(c(c1OP(c1cc(cc(c1)C)C)c1cc(cc(c1)C)C)c1c(ccc3c1cccc3)OP(c1cc(cc(c1)C)C)c1cc(cc(c1)C)C)cccc2.C(=C(\NC(=O)C)/C(=O)OC)\c1ccc(cc1)Cl.ClCCl;;91;24;1.09;1.41;1.38;1.49;1.38;1.38;1.41;1.08;1.38;118.49;118.13;122.59;118.57;119.32;120.78;119.27;117.08;118.37;122.08;0.06;178.78;178.3;1.39;176.71;0.51;52.7;2.59;2.57;2.39;2.38;23.29;62.28;35.8;162.16;151.78;36.19;60.96;58.97;60.24;23.76;0.27;-0.28;0.32;-0.83;-0.83;0.32;-0.09;-0.08;-0.28;0.27;-0.25;-0.02;1522.69;1279.47;1252.94;3229.41;3243.51;100.07;233.63;101.09;5.97;2.72;2;1;1;5.03;1.35;7.53;10.26;1.92;4.58;2;1;1;427.27;443.34;15.41;1.52;435.46;2.02;0.23;0.11;0.08;1.29;-1.26;53.76;0.43;-0.68;-0.27;-0.01;1746.79;487.6;268.71;247.8;14.15;1.41;296.6;16.73;0.42;0.26;0.19
240;R249;L4-7-S114;c1cc2c(c(c1OP(c1cc(cc(c1)C)C)c1cc(cc(c1)C)C)c1c(ccc3c1cccc3)OP(c1cc(cc(c1)C)C)c1cc(cc(c1)C)C)cccc2.C(=C(\NC(=O)C)/C(=O)OC)\c1ccc(cc1)N(=O)=O.ClCCl;;89;24;1.09;1.42;1.37;1.49;1.38;1.37;1.42;1.09;1.38;118.99;119.28;121.78;119.46;119.67;123.36;118.94;115.05;117.83;121.46;0.93;178.68;176.98;3.31;179.43;3.3;63.66;2.63;2.52;2.41;2.35;23.73;62;29.15;225.52;227.07;33.37;61.51;60.66;57.44;23.63;0.27;-0.29;0.35;-0.8;-0.81;0.35;-0.09;-0.09;-0.27;0.27;-0.25;-0.02;1100.12;1305.45;1283.34;3214.82;3201.38;54.41;90.96;120.03;6.64;3.51;2;1;1;8.55;1.35;7.91;8.55;1.35;7.91;2;1;1;799.25;829.05;6.92;1.87;766.9;1.52;0.06;0.04;0.04;1.35;76.17;58.8;-0.27;0.07;-0.25;-0.02;1759.23;88.96;236.96;208.66;47.66;1.39;209.2;6.32;1.02;0.38;0.29