index;name;L-S;smiles;comment;%ee;T;BL32-1;BL1-6;BL6-34;BL5-12;BL12-11;BL33-11;BL11-16;BL16-31;BL6-5;BA32-1-6;BA1-6-34;BA1-6-5;BA6-5-12;BA5-12-11;BA12-11-33;BA5-6-34;BA33-11-16;BA11-16-31;BA12-11-16;DA32-1-6-34;DA32-1-6-5;DA1-6-5-12;DA5-12-11-33;DA12-11-16-31;DA33-11-16-31;DA6-5-12-11;NB32-34;NB33-31;NB1-34;NB33-16;NMR 32;NMR1;NMR6;NMR34;NMR33;NMR11;NMR12;NMR5;NMR16;NMR31;q32;q1;q6;q34;q33;q11;q12;q5;q16;q31;HOMO;LUMO;VF5-12;VF6-34;VF11-33;VF1-32;VF16-31;VI5-12;VI6-34;VI11-33;VI1-32;VI16-31;L1R1;B1R1;B5R1;L1R2;B1R2;B5R2;L1R3;B1R3;B5R3;L1R4;B1R4;B5R4;Area; Vol;PSA; Ovality;MW;dipolemoment;RCx;RCy;RCz;BL12-16S;NMR12-S;NMR16-S;q12-S;q16-S;HOMO-S;LUMO-S;VF12-16S;VI12-16S;Area-S; Vol-S;PSA-S; Ovality-S;MW-S;dipolemoment-S;RCx-S;RCy-S;RCz-S
137;R138;L2-12-S3;c1cc2c(c3c1op(oc1c3c3ccccc3cc1)N1CCOCC1)cccc2.C(=C)(c1ccccc1)NC(=O)C.ClCCl;;99;24;1.89;1.42;1.39;1.49;1.38;1.39;1.42;1.89;1.38;121.47;116.67;124.23;120.61;120.76;118.79;118.9;116.84;121.35;126.32;5.21;169.6;169.69;2.54;168.55;6.88;55.11;3.06;3.06;2.39;2.39;400.09;53.2;35.15;172.22;168.95;32.68;61.85;62.51;55.18;402.59;1.89;-0.55;0.34;-0.83;-0.83;0.34;-0.08;-0.08;-0.55;1.89;-0.26;-0.02;1500.07;1277.65;1277.65;787.23;787.23;52.93;94.94;94.94;28.57;28.57;6.38;4.21;6.49;5.23;1.35;3.89;4.92;1.35;3.98;6.38;4.21;6.49;822.06;885.7;40.55;1.84;865.09;3.54;0.06;0.03;0.03;1.28;5.76;-107.77;0.28;-0.63;-0.26;-0.02;1749.38;131.63;274.01;264.35;37.62;1.38;247.3;2.46;1.04;0.19;0.17
138;R139;L2-12-S4;c1cc2c(c3c1op(oc1c3c3ccccc3cc1)N1CCOCC1)cccc2.C(=C)(c1ccc(cc1)Cl)NC(=O)C.ClCCl;;99;24;1.09;1.41;1.38;1.49;1.38;1.38;1.41;1.09;1.38;118.5;117.86;122.5;118.55;118.62;120.11;119.62;117.86;118.34;122.34;0.3;178.66;178.73;0.87;178.3;0.59;52.85;2.59;2.58;2.39;2.39;23.32;62.09;35.87;141.95;172.27;34.95;59.14;58.58;60.9;23.33;0.27;-0.28;0.32;-0.83;-0.83;0.32;-0.08;-0.09;-0.28;0.27;-0.25;-0.02;1526.07;1384.71;1384.71;3228.01;3224.58;102.04;176.82;176.82;7.88;3.18;2;1;1;11.65;2.09;5.32;4.58;1.35;11.78;2;1;1;466.57;480.84;17.67;1.57;476.52;1.18;0.21;0.06;0.05;1.34;88.87;43.1;-0.5;0.15;-0.27;0.01;1734.2;49.45;203.32;182.53;21.95;1.31;161.2;5.15;2.29;0.5;0.43
139;R140;L2-12-S60;c1cc2c(c3c1op(oc1c3c3ccccc3cc1)N1CCOCC1)cccc2.C=C(NC(=O)C)c1ccc(cc1)OC.ClCCl;;99;24;1.89;1.42;1.39;1.49;1.38;1.39;1.42;1.89;1.38;121.47;116.67;124.23;120.61;120.76;118.79;118.9;116.84;121.35;126.32;5.21;169.6;169.69;2.54;168.55;6.88;55.11;3.06;3.06;2.39;2.39;400.09;53.2;35.15;172.22;168.95;32.68;61.85;62.51;55.18;402.59;1.89;-0.55;0.34;-0.83;-0.83;0.34;-0.08;-0.08;-0.55;1.89;-0.26;-0.02;1500.07;1277.65;1277.65;787.23;787.23;52.93;94.94;94.94;28.57;28.57;6.38;4.21;6.49;5.23;1.35;3.89;4.92;1.35;3.98;6.38;4.21;6.49;822.06;885.7;40.55;1.84;865.09;3.54;0.06;0.03;0.03;1.28;6.36;-105.46;0.28;-0.63;-0.26;-0.01;1743.78;178.63;306.8;296.45;37.55;1.43;273.33;2.56;0.78;0.14;0.12
140;R141;L2-12-S61;c1cc2c(c3c1op(oc1c3c3ccccc3cc1)N1CCOCC1)cccc2.C(=C(\NC(=O)C)/c1ccccc1)\CC.ClCCl;;98;24;1.89;1.42;1.39;1.49;1.38;1.39;1.42;1.89;1.38;121.47;116.67;124.23;120.61;120.76;118.79;118.9;116.84;121.35;126.32;5.21;169.6;169.69;2.54;168.55;6.88;55.11;3.06;3.06;2.39;2.39;400.09;53.2;35.15;172.22;168.95;32.68;61.85;62.51;55.18;402.59;1.89;-0.55;0.34;-0.83;-0.83;0.34;-0.08;-0.08;-0.55;1.89;-0.26;-0.02;1500.07;1277.65;1277.65;787.23;787.23;52.93;94.94;94.94;28.57;28.57;6.38;4.21;6.49;5.23;1.35;3.89;4.92;1.35;3.98;6.38;4.21;6.49;822.06;885.7;40.55;1.84;865.09;3.54;0.06;0.03;0.03;1.28;6.36;-103.11;0.28;-0.63;-0.27;0;1745.68;163.83;247.11;231.35;37.59;1.36;211.26;2.71;1.1;0.31;0.27
141;R142;L2-12-S62;c1cc2c(c3c1op(oc1c3c3ccccc3cc1)N1CCOCC1)cccc2.C(=C(\NC(=O)C)/c1ccccc1)/CC.ClCCl;;23;24;1.09;1.41;1.38;1.49;1.38;1.38;1.41;1.09;1.38;118.48;117.73;122.55;118.43;118.64;120.11;119.69;117.73;118.34;122.4;0.61;178.71;178.42;0.45;178.42;0.82;52.55;2.59;2.58;2.39;2.39;23.33;62.15;35.73;141.85;170.07;34.82;59.34;58.8;60.99;23.32;0.27;-0.28;0.32;-0.83;-0.83;0.32;-0.08;-0.09;-0.28;0.27;-0.25;-0.02;1524.66;1385.09;1385.09;3224.15;3227.2;96.85;174.22;174.22;4.58;3.67;2;1;1;7.74;2.01;3.86;4.57;1.35;6.83;2;1;1;384.37;393.64;23.33;1.48;401.4;1.02;0.24;0.13;0.1;1.34;66.4;50.62;-0.25;0.14;-0.26;0.01;1756.08;12.36;241.02;218.75;22.35;1.37;189.26;4.71;0.85;0.48;0.33
142;R143;L2-12-S1;c1cc2c(c3c1op(oc1c3c3ccccc3cc1)N1CCOCC1)cccc2.C=C(CC(=O)OC)C(=O)OC.ClCCl;;98;24;1.49;1.43;1.38;1.49;1.38;1.36;1.44;1.49;1.38;121.25;118.6;121.83;119.96;121.07;125.62;119.55;113.26;121.73;121.11;1.43;176.93;172.83;2.54;177.01;4.17;88.65;2.86;2.76;2.41;2.34;44.99;44.86;28.77;223.65;212.38;36.62;66.27;57.61;49.82;44.5;-0.07;-0.08;0.36;-0.82;-0.81;0.38;-0.11;-0.08;-0.08;-0.07;-0.25;-0.02;1113.52;1280.28;1280.28;1273.42;1273.42;26.17;160.08;160.08;112.86;112.86;6.36;1.5;3.15;7.48;1.52;6.53;7.48;1.52;6.53;6.36;1.5;3.15;764.9;846.92;7.28;1.77;806.88;1.55;0.05;0.04;0.04;1.36;84.48;30.2;-0.41;0.25;-0.28;-0.03;1698.97;667.01;250.02;228.92;42.25;1.38;219.24;3.83;0.81;0.35;0.26
143;R144;L2-13-S2;c1cc2c(c3c1op(oc1c3c3ccccc3cc1)N1CCN(CC1)c1ccccc1)cccc2.C=C(NC(=O)C)C(=O)OC.ClCCl;;96;24;1.89;1.42;1.39;1.49;1.38;1.39;1.42;1.89;1.38;121.47;116.67;124.23;120.61;120.76;118.79;118.9;116.84;121.35;126.32;5.21;169.6;169.69;2.54;168.55;6.88;55.11;3.06;3.06;2.39;2.39;400.09;53.2;35.15;172.22;168.95;32.68;61.85;62.51;55.18;402.59;1.89;-0.55;0.34;-0.83;-0.83;0.34;-0.08;-0.08;-0.55;1.89;-0.26;-0.02;1500.07;1277.65;1277.65;787.23;787.23;52.93;94.94;94.94;28.57;28.57;6.38;4.21;6.49;5.23;1.35;3.89;4.92;1.35;3.98;6.38;4.21;6.49;822.06;885.7;40.55;1.84;865.09;3.54;0.06;0.03;0.03;1.27;6.92;-108.02;0.28;-0.63;-0.27;-0.01;1748.77;140.63;247.35;231.14;37.57;1.36;276.13;2.23;0.54;0.26;0.19
144;R145;L2-13-S59;c1cc2c(c3c1op(oc1c3c3ccccc3cc1)N1CCN(CC1)c1ccccc1)cccc2.C(=C(\NC(=O)C)/C(=O)OC)\c1ccccc1.ClCCl;;97;24;1.09;1.41;1.38;1.49;1.38;1.37;1.42;1.09;1.38;118.39;117.82;122.55;118.62;119.08;120.68;119.62;117.82;118.14;122.13;0.06;178.8;178.33;0.62;177.55;0.22;52.28;2.59;2.57;2.39;2.38;23.34;62.07;35.57;146.05;167.21;33.81;60.05;58.99;60.5;23.25;0.27;-0.28;0.32;-0.83;-0.83;0.33;-0.08;-0.09;-0.28;0.27;-0.25;-0.02;1521.67;1252.37;1252.37;3235.76;3237.19;99.89;154.52;154.52;4.27;4.58;2;1;1;8.84;1.47;3.89;4.93;1.35;7.63;2;1;1;408.26;420.03;15.68;1.51;413.46;2.65;0.24;0.11;0.09;1.34;80.04;53.6;-0.44;0.03;-0.29;0;1743.25;89.92;175.49;146.86;41.4;1.3;143.14;3.51;3.38;0.69;0.58
145;R146;L2-13-S3;c1cc2c(c3c1op(oc1c3c3ccccc3cc1)N1CCN(CC1)c1ccccc1)cccc2.C(=C)(c1ccccc1)NC(=O)C.ClCCl;;99;24;1.09;1.41;1.38;1.49;1.38;1.38;1.41;1.09;1.38;118.48;117.73;122.55;118.43;118.64;120.11;119.69;117.73;118.34;122.4;0.61;178.71;178.42;0.45;178.42;0.82;52.55;2.59;2.58;2.39;2.39;23.33;62.15;35.73;141.85;170.07;34.82;59.34;58.8;60.99;23.32;0.27;-0.28;0.32;-0.83;-0.83;0.32;-0.08;-0.09;-0.28;0.27;-0.25;-0.02;1524.66;1385.09;1385.09;3224.15;3227.2;96.85;174.22;174.22;4.58;3.67;2;1;1;7.74;2.01;3.86;4.57;1.35;6.83;2;1;1;384.37;393.64;23.33;1.48;401.4;1.02;0.24;0.13;0.1;1.34;80.04;53.6;-0.44;0.03;-0.29;0;1743.25;89.92;175.49;146.86;41.4;1.3;143.14;3.51;3.38;0.69;0.58
146;R147;L2-13-S4;c1cc2c(c3c1op(oc1c3c3ccccc3cc1)N1CCN(CC1)c1ccccc1)cccc2.C(=C)(c1ccc(cc1)Cl)NC(=O)C.ClCCl;;99;24;1.09;1.41;1.38;1.49;1.38;1.38;1.41;1.09;1.38;118.52;117.94;122.49;118.43;118.56;120.05;119.55;117.94;118.36;122.34;0.22;178.66;178.87;0.51;178.71;0.63;52.79;2.59;2.58;2.39;2.39;23.34;62.04;35.74;141.47;172.69;34.82;59.31;58.56;61.09;23.28;0.27;-0.28;0.32;-0.83;-0.83;0.32;-0.08;-0.09;-0.28;0.27;-0.25;-0.02;1526.26;1384.46;1384.46;3232.51;3223.89;97.91;163.72;163.72;6.73;5.36;2;1;1;9.98;2.57;3.87;5.29;1.35;9.75;2;1;1;434.28;449.7;15.51;1.53;447.47;2.21;0.23;0.08;0.07;1.34;80.04;53.6;-0.44;0.03;-0.29;0;1743.25;89.92;175.49;146.86;41.4;1.3;143.14;3.51;3.38;0.69;0.58
147;R148;L2-13-S60;c1cc2c(c3c1op(oc1c3c3ccccc3cc1)N1CCN(CC1)c1ccccc1)cccc2.C=C(NC(=O)C)c1ccc(cc1)OC.ClCCl;;98;24;1.89;1.42;1.39;1.49;1.38;1.39;1.42;1.89;1.38;121.47;116.67;124.23;120.61;120.76;118.79;118.9;116.84;121.35;126.32;5.21;169.6;169.69;2.54;168.55;6.88;55.11;3.06;3.06;2.39;2.39;400.09;53.2;35.15;172.22;168.95;32.68;61.85;62.51;55.18;402.59;1.89;-0.55;0.34;-0.83;-0.83;0.34;-0.08;-0.08;-0.55;1.89;-0.26;-0.02;1500.07;1277.65;1277.65;787.23;787.23;52.93;94.94;94.94;28.57;28.57;6.38;4.21;6.49;5.23;1.35;3.89;4.92;1.35;3.98;6.38;4.21;6.49;822.06;885.7;40.55;1.84;865.09;3.54;0.06;0.03;0.03;1.27;6.79;-109.68;0.28;-0.62;-0.27;-0.03;1749.58;143.87;279.78;261.04;57.45;1.42;255.27;3.93;0.92;0.16;0.15
148;R149;L2-13-S61;c1cc2c(c3c1op(oc1c3c3ccccc3cc1)N1CCN(CC1)c1ccccc1)cccc2.C(=C(\NC(=O)C)/c1ccccc1)\CC.ClCCl;;98;24;1.09;1.41;1.38;1.49;1.38;1.38;1.41;1.09;1.38;118.48;117.73;122.55;118.43;118.64;120.11;119.69;117.73;118.34;122.4;0.61;178.71;178.42;0.45;178.42;0.82;52.55;2.59;2.58;2.39;2.39;23.33;62.15;35.73;141.85;170.07;34.82;59.34;58.8;60.99;23.32;0.27;-0.28;0.32;-0.83;-0.83;0.32;-0.08;-0.09;-0.28;0.27;-0.25;-0.02;1524.66;1385.09;1385.09;3224.15;3227.2;96.85;174.22;174.22;4.58;3.67;2;1;1;7.74;2.01;3.86;4.57;1.35;6.83;2;1;1;384.37;393.64;23.33;1.48;401.4;1.02;0.24;0.13;0.1;1.35;57.04;62.91;-0.2;0.05;-0.27;-0.02;1751.43;44.03;251.68;229.55;41.26;1.39;219.24;2.78;0.77;0.35;0.26
149;R150;L2-13-S62;c1cc2c(c3c1op(oc1c3c3ccccc3cc1)N1CCN(CC1)c1ccccc1)cccc2.C(=C(\NC(=O)C)/c1ccccc1)/CC.ClCCl;;17;24;1.09;1.41;1.38;1.49;1.38;1.38;1.41;1.09;1.38;118.5;117.86;122.5;118.55;118.62;120.11;119.62;117.86;118.34;122.34;0.3;178.66;178.73;0.87;178.3;0.59;52.85;2.59;2.58;2.39;2.39;23.32;62.09;35.87;141.95;172.27;34.95;59.14;58.58;60.9;23.33;0.27;-0.28;0.32;-0.83;-0.83;0.32;-0.08;-0.09;-0.28;0.27;-0.25;-0.02;1526.07;1384.71;1384.71;3228.01;3224.58;102.04;176.82;176.82;7.88;3.18;2;1;1;11.65;2.09;5.32;4.58;1.35;11.78;2;1;1;466.57;480.84;17.67;1.57;476.52;1.18;0.21;0.06;0.05;1.34;66.4;50.62;-0.25;0.14;-0.26;0.01;1756.08;12.36;241.02;218.75;22.35;1.37;189.26;4.71;0.85;0.48;0.33
150;R151;L2-13-S1;c1cc2c(c3c1op(oc1c3c3ccccc3cc1)N1CCN(CC1)c1ccccc1)cccc2.C=C(CC(=O)OC)C(=O)OC.ClCCl;;91;24;1.49;1.42;1.39;1.49;1.38;1.39;1.42;1.49;1.38;120.86;117.03;123.74;119.32;118.94;119.22;119.2;116.97;120.52;129.27;0.78;178.87;178.65;0.79;178.11;0.53;52.45;2.82;2.81;2.39;2.39;51.53;49.44;39.7;184.4;178.22;38.49;60.68;60.86;50.33;51.01;-0.01;-0.08;0.33;-0.82;-0.83;0.33;-0.07;-0.07;-0.09;-0.01;-0.23;-0.04;1505.32;1276.54;1276.54;1516.81;1516.81;47.38;119.67;119.67;6.97;6.97;6.4;1.53;5.61;5.23;1.35;3.89;4.92;1.35;3.98;6.4;1.53;5.61;650.7;692.74;49.81;1.72;700.73;3.71;0.07;0.04;0.04;1.34;38.96;82.8;0.14;-0.47;-0.27;0;1739.46;117.5;220.33;200.04;25.51;1.33;175.23;4.11;1.51;0.48;0.41
151;R152;L2-14-S2;c1cc2c(c3c1op(oc1c3c3ccccc3cc1)N1CCc3c(C1)cccc3)cccc2.C=C(NC(=O)C)C(=O)OC.ClCCl;;99;24;1.89;1.42;1.4;1.49;1.38;1.39;1.42;1.89;1.38;121.25;116.69;124.35;120.56;120.86;118.68;118.77;116.82;121.3;125.99;6.99;167.89;169.07;2.4;168.33;6.93;55.55;3.05;3.06;2.4;2.4;401.91;54.13;35.71;172.72;171.5;33.26;62.02;62.41;55.54;403.72;1.89;-0.55;0.33;-0.83;-0.83;0.34;-0.08;-0.07;-0.56;1.89;-0.26;-0.03;1498.8;1272.18;1272.18;786.91;786.91;65.57;128.32;128.32;37.77;37.77;6.38;4.21;6.49;5.23;1.35;3.89;4.92;1.35;3.98;6.38;4.21;6.49;825.6;886.42;42.16;1.85;865.09;4.21;0.06;0.03;0.03;1.34;31.4;66.73;-0.05;-0.43;-0.26;0;1716.29;33.77;383.61;365.79;11.27;1.55;322.48;1.85;0.41;0.14;0.12
152;R153;L2-14-S59;c1cc2c(c3c1op(oc1c3c3ccccc3cc1)N1CCc3c(C1)cccc3)cccc2.C(=C(\NC(=O)C)/C(=O)OC)\c1ccccc1.ClCCl;;99;24;1.09;1.41;1.38;1.49;1.38;1.37;1.41;1.09;1.38;118.46;117.75;122.5;118.43;118.61;120.13;119.72;117.75;118.3;122.34;0.49;178.65;178.46;0.38;178.49;0.71;52.56;2.59;2.58;2.39;2.39;23.31;61.99;35.48;140.79;169.69;34.53;59.37;58.69;60.91;23.32;0.27;-0.28;0.32;-0.83;-0.83;0.32;-0.08;-0.09;-0.28;0.27;-0.25;-0.02;1525.5;1385.31;1385.31;3225.62;3224.92;99.41;192.88;192.88;5.62;6.31;2;1;1;7.72;2;3.86;4.58;1.35;7.56;2;1;1;392.45;402.63;15.53;1.49;399.43;2.62;0.24;0.13;0.1;1.34;80.04;53.6;-0.44;0.03;-0.29;0;1743.25;89.92;175.49;146.86;41.4;1.3;143.14;3.51;3.38;0.69;0.58
153;R154;L2-14-S3;c1cc2c(c3c1op(oc1c3c3ccccc3cc1)N1CCc3c(C1)cccc3)cccc2.C(=C)(c1ccccc1)NC(=O)C.ClCCl;;94;24;1.09;1.41;1.38;1.49;1.38;1.38;1.41;1.08;1.38;118.49;118.13;122.59;118.57;119.32;120.78;119.27;117.08;118.37;122.08;0.06;178.78;178.3;1.39;176.71;0.51;52.7;2.59;2.57;2.39;2.38;23.29;62.28;35.8;162.16;151.78;36.19;60.96;58.97;60.24;23.76;0.27;-0.28;0.32;-0.83;-0.83;0.32;-0.09;-0.08;-0.28;0.27;-0.25;-0.02;1522.69;1279.47;1252.94;3229.41;3243.51;100.07;233.63;101.09;5.97;2.72;2;1;1;5.03;1.35;7.53;10.26;1.92;4.58;2;1;1;427.27;443.34;15.41;1.52;435.46;2.02;0.23;0.11;0.08;1.3;0.51;72.03;0.42;-0.7;-0.28;-0.06;1731.84;374.69;296.69;274.56;20.27;1.45;261.75;18.05;0.61;0.19;0.16
154;R155;L2-14-S4;c1cc2c(c3c1op(oc1c3c3ccccc3cc1)N1CCc3c(C1)cccc3)cccc2.C(=C)(c1ccc(cc1)Cl)NC(=O)C.ClCCl;;93;24;1.89;1.42;1.39;1.49;1.38;1.39;1.42;1.89;1.38;121.47;116.67;124.23;120.61;120.76;118.79;118.9;116.84;121.35;126.32;5.21;169.6;169.69;2.54;168.55;6.88;55.11;3.06;3.06;2.39;2.39;400.09;53.2;35.15;172.22;168.95;32.68;61.85;62.51;55.18;402.59;1.89;-0.55;0.34;-0.83;-0.83;0.34;-0.08;-0.08;-0.55;1.89;-0.26;-0.02;1500.07;1277.65;1277.65;787.23;787.23;52.93;94.94;94.94;28.57;28.57;6.38;4.21;6.49;5.23;1.35;3.89;4.92;1.35;3.98;6.38;4.21;6.49;822.06;885.7;40.55;1.84;865.09;3.54;0.06;0.03;0.03;1.27;6.95;-106.24;0.28;-0.63;-0.27;-0.01;1747.41;135.79;267.41;249.4;37.68;1.4;290.16;2.75;0.46;0.23;0.18
155;R156;L2-14-S60;c1cc2c(c3c1op(oc1c3c3ccccc3cc1)N1CCc3c(C1)cccc3)cccc2.C=C(NC(=O)C)c1ccc(cc1)OC.ClCCl;;94;24;1.09;1.41;1.38;1.49;1.38;1.37;1.41;1.09;1.38;118.48;117.78;122.54;118.5;118.65;120.16;119.65;117.78;118.28;122.33;0.3;178.6;178.54;0.5;178.49;0.64;52.7;2.59;2.58;2.39;2.38;23.31;61.96;35.28;144.98;171.09;34.37;59.61;58.63;61.01;23.33;0.27;-0.28;0.32;-0.83;-0.83;0.32;-0.08;-0.09;-0.28;0.27;-0.25;-0.02;1525.7;1384.93;1384.93;3229.56;3224.53;97.82;171.4;171.4;4.78;5.87;2;1;1;7.17;1.96;3.87;5.39;1.35;6.38;2;1;1;392.51;397.44;15.44;1.5;387.42;2.49;0.24;0.15;0.11;1.34;80.04;53.6;-0.44;0.03;-0.29;0;1743.25;89.92;175.49;146.86;41.4;1.3;143.14;3.51;3.38;0.69;0.58
156;R157;L2-14-S61;c1cc2c(c3c1op(oc1c3c3ccccc3cc1)N1CCc3c(C1)cccc3)cccc2.C(=C(\NC(=O)C)/c1ccccc1)\CC.ClCCl;;89;24;1.09;1.42;1.37;1.49;1.38;1.37;1.42;1.09;1.38;118.99;119.28;121.78;119.46;119.67;123.36;118.94;115.05;117.83;121.46;0.93;178.68;176.98;3.31;179.43;3.3;63.66;2.63;2.52;2.41;2.35;23.73;62;29.15;225.52;227.07;33.37;61.51;60.66;57.44;23.63;0.27;-0.29;0.35;-0.8;-0.81;0.35;-0.09;-0.09;-0.27;0.27;-0.25;-0.02;1100.12;1305.45;1283.34;3214.82;3201.38;54.41;90.96;120.03;6.64;3.51;2;1;1;8.55;1.35;7.91;8.55;1.35;7.91;2;1;1;799.25;829.05;6.92;1.87;766.9;1.52;0.06;0.04;0.04;1.34;54.37;54.84;-0.2;0.06;-0.28;-0.06;1749.7;197.38;275;250.58;83.17;1.43;264.24;6.93;0.85;0.17;0.16
157;R158;L2-14-S62;c1cc2c(c3c1op(oc1c3c3ccccc3cc1)N1CCc3c(C1)cccc3)cccc2.C(=C(\NC(=O)C)/c1ccccc1)/CC.ClCCl;;12;24;1.09;1.41;1.38;1.49;1.38;1.38;1.41;1.09;1.38;118.52;117.94;122.49;118.43;118.56;120.05;119.55;117.94;118.36;122.34;0.22;178.66;178.87;0.51;178.71;0.63;52.79;2.59;2.58;2.39;2.39;23.34;62.04;35.74;141.47;172.69;34.82;59.31;58.56;61.09;23.28;0.27;-0.28;0.32;-0.83;-0.83;0.32;-0.08;-0.09;-0.28;0.27;-0.25;-0.02;1526.26;1384.46;1384.46;3232.51;3223.89;97.91;163.72;163.72;6.73;5.36;2;1;1;9.98;2.57;3.87;5.29;1.35;9.75;2;1;1;434.28;449.7;15.51;1.53;447.47;2.21;0.23;0.08;0.07;1.34;66.4;50.62;-0.25;0.14;-0.26;0.01;1756.08;12.36;241.02;218.75;22.35;1.37;189.26;4.71;0.85;0.48;0.33
158;R159;L2-14-S1;c1cc2c(c3c1op(oc1c3c3ccccc3cc1)N1CCc3c(C1)cccc3)cccc2.C=C(CC(=O)OC)C(=O)OC.ClCCl;;97;24;1.49;1.42;1.38;1.49;1.38;1.36;1.44;1.49;1.38;119.58;118.14;122.04;120.98;121.32;125.25;119.8;113.57;121.69;121.16;1.82;179.47;176.37;7.47;172.66;8.72;87.39;2.81;2.77;2.4;2.34;42.79;43.83;28.24;232.39;216.5;36.14;64.88;58.44;49.36;44.31;-0.06;-0.08;0.36;-0.82;-0.81;0.38;-0.1;-0.08;-0.08;-0.07;-0.25;-0.01;1111.17;1238.61;1223.42;1277.43;1277.43;17.52;216.87;130.15;172.49;172.49;6.36;1.5;3.15;8.55;1.35;7.91;8.55;1.35;7.91;6.36;1.5;3.15;905.16;990.94;7.36;1.88;919.1;1.99;0.04;0.03;0.03;1.36;84.48;30.2;-0.41;0.25;-0.28;-0.03;1698.97;667.01;250.02;228.92;42.25;1.38;219.24;3.83;0.81;0.35;0.26
159;R160;L3-3-S2;c1(cc2c(c(c1P(c1ccccc1)c1ccccc1)c1c(c(cc3c1cccc3)CCc1ccccc1)P(c1ccccc1)c1ccccc1)cccc2)CCc1ccccc1.C=C(NC(=O)C)C(=O)OC.OC;;98;24;1.49;1.43;1.38;1.49;1.38;1.37;1.43;1.49;1.38;121.56;119.48;121.56;120.98;120.03;122.67;118.96;116.11;121.97;121.14;3.49;176.17;175.1;8.46;177.17;5.91;73.91;2.89;2.83;2.43;2.38;44.48;43.48;30.97;228.77;227.93;36.38;59.86;58.22;44.65;44.08;-0.06;-0.08;0.36;-0.81;-0.81;0.36;-0.09;-0.08;-0.07;-0.05;-0.25;-0.02;1050.05;1269.46;1269.46;1211.73;1211.73;61.95;241.46;241.46;98.16;98.16;6.33;1.62;4.37;7.48;1.52;6.53;7.48;1.52;6.53;6.33;1.62;4.37;823.83;917.16;6.67;1.8;862.99;1.12;0.05;0.04;0.03;1.36;84.33;30;-0.41;0.25;-0.28;-0.03;1698.45;654.27;270.73;247.39;41.83;1.42;233.27;3.69;0.78;0.28;0.22
160;R161;L3-3-S63;c1(cc2c(c(c1P(c1ccccc1)c1ccccc1)c1c(c(cc3c1cccc3)CCc1ccccc1)P(c1ccccc1)c1ccccc1)cccc2)CCc1ccccc1.C=C(NC(=O)C)C(=O)O.OC;;95;24;1.49;1.42;1.39;1.49;1.38;1.39;1.42;1.49;1.38;120.86;117.03;123.74;119.32;118.94;119.22;119.2;116.97;120.52;129.27;0.78;178.87;178.65;0.79;178.11;0.53;52.45;2.82;2.81;2.39;2.39;51.53;49.44;39.7;184.4;178.22;38.49;60.68;60.86;50.33;51.01;-0.01;-0.08;0.33;-0.82;-0.83;0.33;-0.07;-0.07;-0.09;-0.01;-0.23;-0.04;1505.32;1276.54;1276.54;1516.81;1516.81;47.38;119.67;119.67;6.97;6.97;6.4;1.53;5.61;5.23;1.35;3.89;4.92;1.35;3.98;6.4;1.53;5.61;650.7;692.74;49.81;1.72;700.73;3.71;0.07;0.04;0.04;1.34;39.44;83.97;0.14;-0.47;-0.26;0.01;1741.03;133.49;229.81;208.68;32.43;1.35;191.23;3.66;1.34;0.38;0.33
161;R162;L3-4-S2;c1(cc2c(c(c1P(c1ccccc1)c1ccccc1)c1c(c(cc3c1cccc3)COc1ccccc1)P(c1ccccc1)c1ccccc1)cccc2)COc1ccccc1.C=C(NC(=O)C)C(=O)OC.OC;;83;24;1.09;1.41;1.38;1.49;1.38;1.37;1.42;1.09;1.38;118.45;117.87;122.52;118.43;118.8;120.28;119.59;117.87;118.2;122.25;0.19;178.59;178.41;0.2;178.33;0.56;52.47;2.59;2.58;2.39;2.38;23.33;62.19;35.26;147.21;170.01;34.27;59.11;58.82;60.54;23.26;0.27;-0.28;0.32;-0.83;-0.83;0.32;-0.08;-0.08;-0.28;0.27;-0.25;-0.02;1525.15;1254.64;1254.64;3244.72;3233.94;100.47;141.97;141.97;3.54;3.85;2;1;1;7.84;1.45;3.87;4.55;1.35;6.76;2;1;1;377.23;386.01;15.78;1.47;385.4;2.93;0.25;0.15;0.11;1.33;51.89;50.27;-0.36;-0.16;-0.32;0;1752.73;50.1;191.24;161.83;39.33;1.33;158.15;3.83;2.56;0.51;0.44
162;R163;L3-4-S63;c1(cc2c(c(c1P(c1ccccc1)c1ccccc1)c1c(c(cc3c1cccc3)COc1ccccc1)P(c1ccccc1)c1ccccc1)cccc2)COc1ccccc1.C=C(NC(=O)C)C(=O)O.OC;;69;24;1.52;1.44;1.87;1.5;1.39;1.87;1.44;1.51;1.39;121.74;113.21;118.8;121.83;122.2;113.13;127.56;128.15;120.73;118.72;7.62;179.28;178.81;5.05;170.65;8.76;82.66;3.01;3.38;2.77;2.98;123;45.89;46.43;372.31;380.39;41.17;42.52;41.38;44.4;127.73;-0.12;-0.05;-0.32;0.88;0.89;-0.31;-0.02;-0.04;-0.05;-0.14;-0.25;-0.02;1132.49;1187.56;1178.26;1162.71;1187.56;5.12;1.27;5.2;7.93;1.27;8.04;1.53;5.24;7.12;2.38;5.84;7.12;2.38;5.84;8.04;1.53;5.24;793.7;878.9;10.65;1.79;834.94;2.63;0.06;0.03;0.03;1.33;61.66;47.91;-0.38;0;-0.31;-0.01;1738.29;229.01;150.24;125.17;46.99;1.24;129.12;10.36;3.09;1.18;0.88
163;R164;L3-2-S2;c1(cc2c(c(c1P(c1ccccc1)c1ccccc1)c1c(c(cc3c1cccc3)OCc1ccccc1)P(c1ccccc1)c1ccccc1)cccc2)OCc1ccccc1.C=C(NC(=O)C)C(=O)OC.OC;;96;24;1.09;1.41;1.38;1.49;1.38;1.38;1.41;1.09;1.38;118.5;117.86;122.5;118.55;118.62;120.11;119.62;117.86;118.34;122.34;0.3;178.66;178.73;0.87;178.3;0.59;52.85;2.59;2.58;2.39;2.39;23.32;62.09;35.87;141.95;172.27;34.95;59.14;58.58;60.9;23.33;0.27;-0.28;0.32;-0.83;-0.83;0.32;-0.08;-0.09;-0.28;0.27;-0.25;-0.02;1526.07;1384.71;1384.71;3228.01;3224.58;102.04;176.82;176.82;7.88;3.18;2;1;1;11.65;2.09;5.32;4.58;1.35;11.78;2;1;1;466.57;480.84;17.67;1.57;476.52;1.18;0.21;0.06;0.05;1.34;80.04;53.6;-0.44;0.03;-0.29;0;1743.25;89.92;175.49;146.86;41.4;1.3;143.14;3.51;3.38;0.69;0.58