index;name;L-S;smiles;comment;%ee;T;BL32-1;BL1-6;BL6-34;BL5-12;BL12-11;BL33-11;BL11-16;BL16-31;BL6-5;BA32-1-6;BA1-6-34;BA1-6-5;BA6-5-12;BA5-12-11;BA12-11-33;BA5-6-34;BA33-11-16;BA11-16-31;BA12-11-16;DA32-1-6-34;DA32-1-6-5;DA1-6-5-12;DA5-12-11-33;DA12-11-16-31;DA33-11-16-31;DA6-5-12-11;NB32-34;NB33-31;NB1-34;NB33-16;NMR 32;NMR1;NMR6;NMR34;NMR33;NMR11;NMR12;NMR5;NMR16;NMR31;q32;q1;q6;q34;q33;q11;q12;q5;q16;q31;HOMO;LUMO;VF5-12;VF6-34;VF11-33;VF1-32;VF16-31;VI5-12;VI6-34;VI11-33;VI1-32;VI16-31;L1R1;B1R1;B5R1;L1R2;B1R2;B5R2;L1R3;B1R3;B5R3;L1R4;B1R4;B5R4;Area; Vol;PSA; Ovality;MW;dipolemoment;RCx;RCy;RCz;BL12-16S;NMR12-S;NMR16-S;q12-S;q16-S;HOMO-S;LUMO-S;VF12-16S;VI12-16S;Area-S; Vol-S;PSA-S; Ovality-S;MW-S;dipolemoment-S;RCx-S;RCy-S;RCz-S
369;R410;L3'-2-S192;CC1=C(OC)C(C)=CC(P(C2CCCCC2)C3CCCCC3)=C1C4=C(C)C(OC)=C(C)C=C4P(C5CCCCC5)C6CCCCC6.O=C(/C(CC(O)=O)=C/C1=CC=C(OCO2)C2=C1)OC.CO;out of bag;73;30;1.09;1.09;1.41;1.86;1.41;1.5;1.41;1.86;1.4;119.17;109.84;117.99;124.21;120;118.48;132.05;122.82;120.26;118.66;0.99;175.58;174.48;8.46;179.78;2.02;78.25;2.69;3.02;2.69;2.87;23.47;50.16;44.95;352.47;382.12;46.9;36.72;40.63;52.3;23.55;0.25;-0.25;-0.33;0.87;0.88;-0.34;-0.04;-0.06;-0.25;0.25;-0.25;0.02;1538.86;1137.84;1137.84;3196.75;3209.65;94.58;258.04;258.04;7.67;11.86;2;1;1;4.27;1.9;4.94;4.27;1.9;4.94;2;1;1;708.42;739.44;12.86;1.79;662.92;5.29;0.07;0.06;0.05;1.34;55.17;37.78;-0.13;-0.15;-0.29;-0.03;1745.35;29.37;265.01;245.67;67.81;1.4;262.22;4.79;0.73;0.21;0.18
370;R411;L3'-3-S192;CC1=C(OC)C(C)=CC(P(C2=CC=CC=C2)C3=CC=CC=C3)=C1C4=C(C)C(OC)=C(C)C=C4P(C5CCCCC5)C6CCCCC6.O=C(/C(CC(O)=O)=C/C1=CC=C(OCO2)C2=C1)OC.CO;out of bag;59;30;1.09;1.09;1.4;1.86;1.42;1.5;1.41;1.86;1.4;120.06;119.18;118.75;119.89;120.35;118.38;121.22;122.95;120.25;118.55;7.29;176.86;177.08;9.7;178.87;5.1;75.25;2.93;3.03;2.81;2.87;23.88;50.58;46.86;368.91;382.48;46.76;36.96;39.25;52.88;23.71;0.26;-0.24;-0.34;0.9;0.88;-0.34;-0.05;-0.05;-0.25;0.25;-0.25;0;1533.43;1137.65;1137.65;3205.77;3206.15;66.72;278.97;278.97;13.57;4.58;2;1;1;4.27;1.9;4.94;7.12;2.38;5.84;2;1;1;675.11;713.31;12.89;1.75;650.82;4.36;0.07;0.06;0.05;1.34;55.17;37.78;-0.13;-0.15;-0.29;-0.03;1745.35;29.37;265.01;245.67;67.81;1.4;262.22;4.79;0.73;0.21;0.18