index;name;L-S;smiles;comment;%ee;T;BL32-1;BL1-6;BL6-34;BL5-12;BL12-11;BL33-11;BL11-16;BL16-31;BL6-5;BA32-1-6;BA1-6-34;BA1-6-5;BA6-5-12;BA5-12-11;BA12-11-33;BA5-6-34;BA33-11-16;BA11-16-31;BA12-11-16;DA32-1-6-34;DA32-1-6-5;DA1-6-5-12;DA5-12-11-33;DA12-11-16-31;DA33-11-16-31;DA6-5-12-11;NB32-34;NB33-31;NB1-34;NB33-16;NMR 32;NMR1;NMR6;NMR34;NMR33;NMR11;NMR12;NMR5;NMR16;NMR31;q32;q1;q6;q34;q33;q11;q12;q5;q16;q31;HOMO;LUMO;VF5-12;VF6-34;VF11-33;VF1-32;VF16-31;VI5-12;VI6-34;VI11-33;VI1-32;VI16-31;L1R1;B1R1;B5R1;L1R2;B1R2;B5R2;L1R3;B1R3;B5R3;L1R4;B1R4;B5R4;Area; Vol;PSA; Ovality;MW;dipolemoment;RCx;RCy;RCz;BL12-16S;NMR12-S;NMR16-S;q12-S;q16-S;HOMO-S;LUMO-S;VF12-16S;VI12-16S;Area-S; Vol-S;PSA-S; Ovality-S;MW-S;dipolemoment-S;RCx-S;RCy-S;RCz-S
164;R165;L3-2-S63;c1(cc2c(c(c1P(c1ccccc1)c1ccccc1)c1c(c(cc3c1cccc3)OCc1ccccc1)P(c1ccccc1)c1ccccc1)cccc2)OCc1ccccc1.C=C(NC(=O)C)C(=O)O.OC;;92;24;1.09;1.41;1.38;1.49;1.38;1.37;1.42;1.09;1.38;118.39;117.82;122.55;118.62;119.08;120.68;119.62;117.82;118.14;122.13;0.06;178.8;178.33;0.62;177.55;0.22;52.28;2.59;2.57;2.39;2.38;23.34;62.07;35.57;146.05;167.21;33.81;60.05;58.99;60.5;23.25;0.27;-0.28;0.32;-0.83;-0.83;0.33;-0.08;-0.09;-0.28;0.27;-0.25;-0.02;1521.67;1252.37;1252.37;3235.76;3237.19;99.89;154.52;154.52;4.27;4.58;2;1;1;8.84;1.47;3.89;4.93;1.35;7.63;2;1;1;408.26;420.03;15.68;1.51;413.46;2.65;0.24;0.11;0.09;1.34;90.82;43.29;-0.51;0.15;-0.25;0.02;1731.24;74.34;232.88;209.46;28.92;1.37;191.23;5.49;2.12;0.28;0.26
165;R166;L3-3-S59;c1(cc2c(c(c1P(c1ccccc1)c1ccccc1)c1c(c(cc3c1cccc3)CCc1ccccc1)P(c1ccccc1)c1ccccc1)cccc2)CCc1ccccc1.C(=C(\NC(=O)C)/C(=O)OC)\c1ccccc1.OC;;78;24;1.09;1.43;1.85;1.5;1.39;1.86;1.42;1.09;1.39;119.31;117.17;118.86;121.45;120.04;117.7;122.8;122.76;119.44;119.51;8.94;176.89;174.09;3.21;179.06;3.02;80.1;2.9;3.03;2.81;2.89;23.02;54.02;41.63;365.63;383.84;39.55;37.46;42.18;55.15;23.97;0.27;-0.25;-0.33;0.9;0.91;-0.33;-0.02;-0.04;-0.25;0.26;-0.25;-0.02;1228.68;1198.75;1189.53;3214.44;3224.42;0.71;2.02;2.05;2.59;12.72;2;1;1;7.12;2.38;5.84;7.12;2.38;5.84;2;1;1;599.12;662.49;0;1.63;622.69;2.78;0.09;0.06;0.06;1.33;30.37;81.78;-0.04;-0.46;-0.26;0.01;1756.71;37.14;171.07;156.61;0;1.22;130.19;0.83;2.53;1.26;0.86
166;R167;L3-4-S59;c1(cc2c(c(c1P(c1ccccc1)c1ccccc1)c1c(c(cc3c1cccc3)COc1ccccc1)P(c1ccccc1)c1ccccc1)cccc2)COc1ccccc1.C(=C(\NC(=O)C)/C(=O)OC)\c1ccccc1.OC;;65;24;1.49;1.42;1.39;1.49;1.38;1.39;1.42;1.49;1.38;120.97;117.08;123.7;119.14;119.14;119.12;119.2;117.17;120.62;130.11;0.18;178.96;177.07;0.54;177.47;2.42;53.07;2.82;2.81;2.4;2.4;48.03;47.19;40.9;183.65;177.79;39.67;60.95;61;47.95;46.64;-0.03;-0.08;0.33;-0.82;-0.83;0.33;-0.07;-0.07;-0.08;-0.03;-0.25;-0.03;1506.25;1280.54;1280.54;1516.58;1516.58;23.3;60.06;60.06;10.89;10.89;8.46;1.52;5.63;5.23;1.35;3.89;4.92;1.35;3.98;8.46;1.52;5.63;654.45;693.04;50.89;1.73;700.73;3.36;0.07;0.04;0.03;1.34;57.99;52.5;-0.24;-0.02;-0.22;0;1763.12;43.44;262.88;253.97;9.13;1.36;223.32;1.65;0.84;0.37;0.27
167;R168;L3-6-S63;c1(cc2c(c(c1P(c1ccccc1)c1ccccc1)c1c(c(cc3c1cccc3)OC(C)C)P(c1ccccc1)c1ccccc1)cccc2)OC(C)C.C=C(NC(=O)C)C(=O)O.OC;;94.9;24;1.09;1.41;1.38;1.49;1.38;1.38;1.41;1.09;1.38;118.41;116.44;122.46;120.07;119.36;118.82;120.98;118.25;118.56;122.93;0.01;175.98;171.73;0.4;178.82;0.29;53.94;2.56;2.6;2.38;2.4;24.17;60.41;37.27;156.22;145.93;38.48;58.37;0.91;62.23;23.19;0.27;-0.27;0.33;-0.84;-0.83;0.31;-0.08;-0.08;-0.28;0.28;-0.25;-0.02;1522.83;1243.98;1277.75;3226.17;3229.65;87.56;25.47;159.85;6.24;3.46;2;1;1;7.43;1.35;7.03;5.43;1.35;6.27;2;1;1;416.63;438.08;21.3;1.49;436.45;2.07;0.22;0.12;0.09;1.34;42.65;89.35;0.15;-0.5;-0.27;0.01;1733.89;52.63;203.37;182.54;21.95;1.31;161.2;5.17;2.3;0.5;0.43
168;R169;L3-6-S2;c1(cc2c(c(c1P(c1ccccc1)c1ccccc1)c1c(c(cc3c1cccc3)OC(C)C)P(c1ccccc1)c1ccccc1)cccc2)OC(C)C.C=C(NC(=O)C)C(=O)OC.OC;;98;24;1.89;1.42;1.39;1.49;1.38;1.39;1.42;1.89;1.38;121.47;116.67;124.23;120.61;120.76;118.79;118.9;116.84;121.35;126.32;5.21;169.6;169.69;2.54;168.55;6.88;55.11;3.06;3.06;2.39;2.39;400.09;53.2;35.15;172.22;168.95;32.68;61.85;62.51;55.18;402.59;1.89;-0.55;0.34;-0.83;-0.83;0.34;-0.08;-0.08;-0.55;1.89;-0.26;-0.02;1500.07;1277.65;1277.65;787.23;787.23;52.93;94.94;94.94;28.57;28.57;6.38;4.21;6.49;5.23;1.35;3.89;4.92;1.35;3.98;6.38;4.21;6.49;822.06;885.7;40.55;1.84;865.09;3.54;0.06;0.03;0.03;1.28;7.64;-104.71;0.28;-0.63;-0.27;-0.01;1745.27;168.35;262.62;244.93;37.59;1.39;245.71;2.95;0.93;0.19;0.17
169;R170;L3-5-S63;c1(cc2c(c(c1P(c1ccccc1)c1ccccc1)c1c(c(cc3c1cccc3)OC(=O)C(C)(C)C)P(c1ccccc1)c1ccccc1)cccc2)OC(=O)C(C)(C)C.C=C(NC(=O)C)C(=O)O.OC;;99;24;1.89;1.42;1.39;1.49;1.38;1.39;1.42;1.89;1.38;121.47;116.67;124.23;120.61;120.76;118.79;118.9;116.84;121.35;126.32;5.21;169.6;169.69;2.54;168.55;6.88;55.11;3.06;3.06;2.39;2.39;400.09;53.2;35.15;172.22;168.95;32.68;61.85;62.51;55.18;402.59;1.89;-0.55;0.34;-0.83;-0.83;0.34;-0.08;-0.08;-0.55;1.89;-0.26;-0.02;1500.07;1277.65;1277.65;787.23;787.23;52.93;94.94;94.94;28.57;28.57;6.38;4.21;6.49;5.23;1.35;3.89;4.92;1.35;3.98;6.38;4.21;6.49;822.06;885.7;40.55;1.84;865.09;3.54;0.06;0.03;0.03;1.27;7.4;-109.36;0.28;-0.62;-0.29;-0.04;1750.58;142.62;252.48;234.41;76.06;1.37;242.23;4.7;0.61;0.3;0.22
170;R171;L3-5-S2;c1(cc2c(c(c1P(c1ccccc1)c1ccccc1)c1c(c(cc3c1cccc3)OC(=O)C(C)(C)C)P(c1ccccc1)c1ccccc1)cccc2)OC(=O)C(C)(C)C.C=C(NC(=O)C)C(=O)OC.OC;;99;24;1.09;1.41;1.38;1.49;1.38;1.37;1.41;1.09;1.38;118.46;117.75;122.5;118.43;118.61;120.13;119.72;117.75;118.3;122.34;0.49;178.65;178.46;0.38;178.49;0.71;52.56;2.59;2.58;2.39;2.39;23.31;61.99;35.48;140.79;169.69;34.53;59.37;58.69;60.91;23.32;0.27;-0.28;0.32;-0.83;-0.83;0.32;-0.08;-0.09;-0.28;0.27;-0.25;-0.02;1525.5;1385.31;1385.31;3225.62;3224.92;99.41;192.88;192.88;5.62;6.31;2;1;1;7.72;2;3.86;4.58;1.35;7.56;2;1;1;392.45;402.63;15.53;1.49;399.43;2.62;0.24;0.13;0.1;1.33;51.89;50.27;-0.36;-0.16;-0.32;0;1752.73;50.1;191.24;161.83;39.33;1.33;158.15;3.83;2.56;0.51;0.44
171;R172;L3-5-S59;c1(cc2c(c(c1P(c1ccccc1)c1ccccc1)c1c(c(cc3c1cccc3)OC(=O)C(C)(C)C)P(c1ccccc1)c1ccccc1)cccc2)OC(=O)C(C)(C)C.C(=C(\NC(=O)C)/C(=O)OC)\c1ccccc1.OC;;74.7;24;1.4;1.43;1.86;1.5;1.4;1.86;1.42;1.4;1.39;118.72;115.59;116.88;121.5;120.04;115.86;126.92;127.06;120.88;117.03;0.95;172.66;169.26;0.31;171.34;6.12;76.2;2.94;3.27;2.79;2.94;90.73;35.54;46.14;375.83;389.03;45.16;37.47;40.28;32.59;71.7;-0.56;0.29;-0.35;0.9;0.91;-0.36;-0.01;-0.03;0.3;-0.56;-0.25;-0.03;1095.76;1171.49;1164.96;1236.8;1257.87;6.03;320.99;144.9;204.5;131.21;6.23;1.69;4.25;7.12;2.38;5.84;7.12;2.38;5.84;6.23;1.69;4.25;782.75;861.63;33.9;1.79;822.92;4.19;0.06;0.04;0.04;1.34;45.2;58.82;-0.16;0.03;-0.28;-0.03;1738.46;515.55;250.21;229.24;45.26;1.38;219.24;2.52;0.93;0.33;0.27
172;R173;L3-6-S3;c1(cc2c(c(c1P(c1ccccc1)c1ccccc1)c1c(c(cc3c1cccc3)OC(C)C)P(c1ccccc1)c1ccccc1)cccc2)OC(C)C.C(=C)(c1ccccc1)NC(=O)C.OC;;89.9;24;1.36;1.44;1.86;1.5;1.39;1.86;1.44;1.35;1.38;114.13;111.8;118.38;124.02;120.42;116.1;129.59;125.3;115.5;118.61;3.72;171.31;173.48;8.05;173.37;6.48;93.27;2.73;3.11;2.74;2.94;178.03;32.26;50.07;377.81;390.68;52.06;34.73;39.54;31.11;181.73;-0.57;0.34;-0.36;0.91;0.9;-0.36;0;-0.03;0.34;-0.57;-0.25;-0.02;1093.23;1230.97;1265.86;1230.97;1265.86;13.44;137.29;165.64;129.78;165.64;5.15;1.35;4.16;7.12;2.38;5.84;7.12;2.38;5.84;5.15;1.35;4.16;716.44;788.04;5.8;1.74;738.85;3.63;0.07;0.05;0.04;1.34;79.88;39.83;-0.46;0.14;-0.27;0.01;1737.25;225.23;203.32;182.46;23.87;1.31;161.2;4.99;1.7;0.65;0.54
173;R174;L3-5-S3;c1(cc2c(c(c1P(c1ccccc1)c1ccccc1)c1c(c(cc3c1cccc3)OC(=O)C(C)(C)C)P(c1ccccc1)c1ccccc1)cccc2)OC(=O)C(C)(C)C.C(=C)(c1ccccc1)NC(=O)C.OC;;85.6;24;1.4;1.43;1.86;1.5;1.4;1.86;1.42;1.4;1.39;118.72;115.59;116.88;121.5;120.04;115.86;126.92;127.06;120.88;117.03;0.95;172.66;169.26;0.31;171.34;6.12;76.2;2.94;3.27;2.79;2.94;90.73;35.54;46.14;375.83;389.03;45.16;37.47;40.28;32.59;71.7;-0.56;0.29;-0.35;0.9;0.91;-0.36;-0.01;-0.03;0.3;-0.56;-0.25;-0.03;1095.76;1171.49;1164.96;1236.8;1257.87;6.03;320.99;144.9;204.5;131.21;6.23;1.69;4.25;7.12;2.38;5.84;7.12;2.38;5.84;6.23;1.69;4.25;782.75;861.63;33.9;1.79;822.92;4.19;0.06;0.04;0.04;1.34;79.88;39.83;-0.46;0.14;-0.27;0.01;1737.25;225.23;203.32;182.46;23.87;1.31;161.2;4.99;1.7;0.65;0.54
174;R175;L3-2-S3;c1(cc2c(c(c1P(c1ccccc1)c1ccccc1)c1c(c(cc3c1cccc3)OCc1ccccc1)P(c1ccccc1)c1ccccc1)cccc2)OCc1ccccc1.C(=C)(c1ccccc1)NC(=O)C.OC;;59.6;24;1.36;1.44;1.86;1.5;1.38;1.87;1.43;1.36;1.38;114.24;111.26;118.21;122.98;122.34;115.46;130.2;126.08;115.76;118.46;6.96;178.9;176.26;0.06;176.18;4.25;89.12;2.73;3.14;2.74;2.95;203.98;29.79;57.59;378.16;391.78;51.16;41.18;38.85;29.62;203.49;-0.55;0.34;-0.36;0.91;0.89;-0.35;-0.01;-0.02;0.34;-0.56;-0.25;-0.02;1188.06;1188.06;1177.78;1260.66;1252.32;4.41;4.41;16.54;226.21;180.04;7.27;1.35;5.31;7.12;2.38;5.84;7.12;2.38;5.84;7.27;1.35;5.31;787;881;7.2;1.77;834.94;3.86;0.06;0.03;0.03;1.34;79.88;39.83;-0.46;0.14;-0.27;0.01;1737.25;225.23;203.32;182.46;23.87;1.31;161.2;4.99;1.7;0.65;0.54
175;R176;L3-1-S64;c1cc2c(c(c1P(c1ccccc1)c1ccccc1)c1c(ccc3c1cccc3)P(c1ccccc1)c1ccccc1)cccc2.C1(=C)c2ccccc2CC1.ClCCl;;78;30;1.49;1.42;1.39;1.49;1.38;1.39;1.42;1.48;1.38;121.93;117.47;123.09;119.72;119.58;118.61;119.25;117.59;121.38;126.3;1.05;173.83;171.62;0.2;178.73;0.54;53.75;2.85;2.84;2.41;2.4;43.04;49.8;42.68;184.33;185.61;42.3;59.67;60.7;51.16;43.08;-0.04;-0.08;0.33;-0.83;-0.83;0.33;-0.06;-0.07;-0.08;-0.04;-0.27;-0.04;1567.85;1227.36;1238.23;1505.24;1505.24;30.37;20.67;68.24;27.67;27.67;6.96;2.28;4.9;5.23;1.35;3.89;4.92;1.35;3.98;6.96;2.28;4.9;614.42;616.41;49.73;1.75;772.48;8.36;0.06;0.03;0.03;1.28;10.18;-134.43;0.33;-0.47;-0.26;0;1757.73;291.42;309.2;289.34;13.82;1.46;253.34;3.81;1.27;0.14;0.13
176;R177;L3-1-S65;c1cc2c(c(c1P(c1ccccc1)c1ccccc1)c1c(ccc3c1cccc3)P(c1ccccc1)c1ccccc1)cccc2.C1(=C)c2ccccc2CCC1.ClCCl;;69;30;1.09;1.43;1.85;1.5;1.39;1.86;1.42;1.09;1.39;119.31;117.17;118.86;121.45;120.04;117.7;122.8;122.76;119.44;119.51;8.94;176.89;174.09;3.21;179.06;3.02;80.1;2.9;3.03;2.81;2.89;23.02;54.02;41.63;365.63;383.84;39.55;37.46;42.18;55.15;23.97;0.27;-0.25;-0.33;0.9;0.91;-0.33;-0.02;-0.04;-0.25;0.26;-0.25;-0.02;1228.68;1198.75;1189.53;3214.44;3224.42;0.71;2.02;2.05;2.59;12.72;2;1;1;7.12;2.38;5.84;7.12;2.38;5.84;2;1;1;599.12;662.49;0;1.63;622.69;2.78;0.09;0.06;0.06;1.34;37.31;75.68;-0.04;-0.45;-0.27;0.01;1747.27;29;184.65;172.85;0;1.23;144.22;0.9;1.89;1.06;0.7
177;R178;L3-1-S66;c1cc2c(c(c1P(c1ccccc1)c1ccccc1)c1c(ccc3c1cccc3)P(c1ccccc1)c1ccccc1)cccc2.C1(=C)c2cc(ccc2CCC1)OC.ClCCl;;65;30;1.09;1.43;1.85;1.5;1.39;1.86;1.42;1.09;1.39;119.31;117.17;118.86;121.45;120.04;117.7;122.8;122.76;119.44;119.51;8.94;176.89;174.09;3.21;179.06;3.02;80.1;2.9;3.03;2.81;2.89;23.02;54.02;41.63;365.63;383.84;39.55;37.46;42.18;55.15;23.97;0.27;-0.25;-0.33;0.9;0.91;-0.33;-0.02;-0.04;-0.25;0.26;-0.25;-0.02;1228.68;1198.75;1189.53;3214.44;3224.42;0.71;2.02;2.05;2.59;12.72;2;1;1;7.12;2.38;5.84;7.12;2.38;5.84;2;1;1;599.12;662.49;0;1.63;622.69;2.78;0.09;0.06;0.06;1.34;37.36;74.7;-0.04;-0.45;-0.26;0.01;1742.42;22.15;214.05;199.75;6.98;1.3;174.24;2.05;1.7;0.52;0.41
178;R179;L3-1-S67;c1cc2c(c(c1P(c1ccccc1)c1ccccc1)c1c(ccc3c1cccc3)P(c1ccccc1)c1ccccc1)cccc2.C1(=C)c2ccc(cc2CCC1)OC.ClCCl;;75;30;1.89;1.42;1.4;1.49;1.38;1.39;1.42;1.89;1.38;121.25;116.69;124.35;120.56;120.86;118.68;118.77;116.82;121.3;125.99;6.99;167.89;169.07;2.4;168.33;6.93;55.55;3.05;3.06;2.4;2.4;401.91;54.13;35.71;172.72;171.5;33.26;62.02;62.41;55.54;403.72;1.89;-0.55;0.33;-0.83;-0.83;0.34;-0.08;-0.07;-0.56;1.89;-0.26;-0.03;1498.8;1272.18;1272.18;786.91;786.91;65.57;128.32;128.32;37.77;37.77;6.38;4.21;6.49;5.23;1.35;3.89;4.92;1.35;3.98;6.38;4.21;6.49;825.6;886.42;42.16;1.85;865.09;4.21;0.06;0.03;0.03;1.34;34.31;63.46;-0.06;-0.42;-0.25;-0.01;1702.7;38.86;395.63;386.84;11.5;1.54;348.52;3.17;0.29;0.14;0.12
179;R180;L3-1-S68;c1cc2c(c(c1P(c1ccccc1)c1ccccc1)c1c(ccc3c1cccc3)P(c1ccccc1)c1ccccc1)cccc2.C1(=C)c2cccc(c2CCC1)OC.ClCCl;;61;30;1.09;1.43;1.85;1.5;1.39;1.86;1.42;1.09;1.39;119.31;117.17;118.86;121.45;120.04;117.7;122.8;122.76;119.44;119.51;8.94;176.89;174.09;3.21;179.06;3.02;80.1;2.9;3.03;2.81;2.89;23.02;54.02;41.63;365.63;383.84;39.55;37.46;42.18;55.15;23.97;0.27;-0.25;-0.33;0.9;0.91;-0.33;-0.02;-0.04;-0.25;0.26;-0.25;-0.02;1228.68;1198.75;1189.53;3214.44;3224.42;0.71;2.02;2.05;2.59;12.72;2;1;1;7.12;2.38;5.84;7.12;2.38;5.84;2;1;1;599.12;662.49;0;1.63;622.69;2.78;0.09;0.06;0.06;1.34;36.78;75.17;-0.04;-0.45;-0.26;0.01;1743.56;15.98;212.99;199.55;5.85;1.29;174.24;1.9;1.4;0.65;0.45
180;R181;L3-1-S69;c1cc2c(c(c1P(c1ccccc1)c1ccccc1)c1c(ccc3c1cccc3)P(c1ccccc1)c1ccccc1)cccc2.C(=C(\C(=O)O)/NC(=O)c1ccccc1)\c1ccccc1.OCC;;87;24;1.09;1.42;1.37;1.49;1.38;1.37;1.42;1.09;1.38;118.93;119.19;121.76;119.51;119.57;123.31;119.05;115.09;117.82;121.48;0.97;178.68;176.76;3.5;179.36;3.27;63.5;2.62;2.52;2.41;2.35;23.73;61.85;28.97;224.72;226.77;33.32;61.41;60.73;57.29;23.66;0.24;-0.29;0.35;-0.8;-0.81;0.35;-0.09;-0.09;-0.27;0.24;-0.25;-0.01;1103.16;1300.67;1288.14;3225.71;3228.97;74.99;78.82;68.79;15.92;6.38;2;1;1;8.55;1.35;7.91;8.55;1.35;7.91;2;1;1;795.61;828.5;6.88;1.87;766.9;1.44;0.06;0.04;0.04;1.34;50;58.01;-0.18;0.04;-0.27;-0.03;1745.58;157.86;249.91;229.35;44.75;1.38;219.24;2.03;0.92;0.33;0.27
181;R182;L3-1-S70;c1cc2c(c(c1P(c1ccccc1)c1ccccc1)c1c(ccc3c1cccc3)P(c1ccccc1)c1ccccc1)cccc2.C(=C(\C(=O)OC)/NC(=O)c1ccccc1)/c1ccccc1.OCC;;93;24;1.09;1.41;1.37;1.49;1.38;1.38;1.41;1.09;1.38;118.29;117.64;122.25;118.76;118.48;119.61;120.11;117.91;118.46;122.45;0.25;178.41;178.36;0.04;178.64;0.49;52.67;2.58;2.59;2.39;2.39;23.3;61.12;34.48;141.59;169.68;35.55;58.62;59.44;62.03;23.31;0.27;-0.28;0.32;-0.83;-0.83;0.32;-0.08;-0.09;-0.28;0.27;-0.25;-0.02;1521.61;1252;1280.81;3225.36;3233.88;104.79;45.37;141.12;5.43;10.07;2;1;1;7.75;2.01;3.87;4.65;1.35;7.56;2;1;1;392.82;402.68;15.6;1.49;399.43;2.59;0.24;0.13;0.1;1.28;12.51;-96.94;0.34;-0.49;-0.25;-0.02;1762.6;389.71;287.59;270.83;10.78;1.42;239.32;3.02;0.88;0.21;0.19
182;R183;L3-1-S71;c1cc2c(c(c1P(c1ccccc1)c1ccccc1)c1c(ccc3c1cccc3)P(c1ccccc1)c1ccccc1)cccc2.C(=C(\C(=O)O)/NC(=O)C)/c1ccccc1.OCC;;84;24;1.09;1.43;1.85;1.5;1.39;1.86;1.42;1.09;1.39;119.31;117.17;118.86;121.45;120.04;117.7;122.8;122.76;119.44;119.51;8.94;176.89;174.09;3.21;179.06;3.02;80.1;2.9;3.03;2.81;2.89;23.02;54.02;41.63;365.63;383.84;39.55;37.46;42.18;55.15;23.97;0.27;-0.25;-0.33;0.9;0.91;-0.33;-0.02;-0.04;-0.25;0.26;-0.25;-0.02;1228.24;1197.77;1173.17;3218.98;3224.16;0.86;1.58;1.38;2.12;7.92;2;1;1;7.12;2.38;5.84;7.12;2.38;5.84;2;1;1;597.86;662.41;0;1.63;622.69;3.05;0.09;0.06;0.06;1.34;37.13;61.76;-0.13;-0.01;-0.29;-0.04;1734.58;440.3;229.81;209.45;56.97;1.35;205.21;4.71;0.93;0.41;0.31
183;R184;L3-1-S72;c1cc2c(c(c1P(c1ccccc1)c1ccccc1)c1c(ccc3c1cccc3)P(c1ccccc1)c1ccccc1)cccc2.C=C(C(=O)O)NC(=O)c1ccccc1.OCC;;79;24;1.09;1.43;1.85;1.5;1.39;1.86;1.42;1.09;1.39;119.31;117.17;118.86;121.45;120.04;117.7;122.8;122.76;119.44;119.51;8.94;176.89;174.09;3.21;179.06;3.02;80.1;2.9;3.03;2.81;2.89;23.02;54.02;41.63;365.63;383.84;39.55;37.46;42.18;55.15;23.97;0.27;-0.25;-0.33;0.9;0.91;-0.33;-0.02;-0.04;-0.25;0.26;-0.25;-0.02;1228.24;1197.77;1173.17;3218.98;3224.16;0.86;1.58;1.38;2.12;7.92;2;1;1;7.12;2.38;5.84;7.12;2.38;5.84;2;1;1;597.86;662.41;0;1.63;622.69;3.05;0.09;0.06;0.06;1.33;54.96;49.23;-0.37;0.01;-0.3;-0.01;1746.71;371.18;213.59;191.61;59.45;1.33;191.19;2.96;1.2;0.46;0.39
184;R185;L3-1-S73;c1cc2c(c(c1P(c1ccccc1)c1ccccc1)c1c(ccc3c1cccc3)P(c1ccccc1)c1ccccc1)cccc2.C(=C(\C(=O)O)/C)/C.OC;original paper lists 15-30;91;12;1.09;1.42;1.37;1.49;1.38;1.37;1.42;1.09;1.38;118.99;119.28;121.78;119.46;119.67;123.36;118.94;115.05;117.83;121.46;0.93;178.68;176.98;3.31;179.43;3.3;63.66;2.63;2.52;2.41;2.35;23.73;62;29.15;225.52;227.07;33.37;61.51;60.66;57.44;23.63;0.27;-0.29;0.35;-0.8;-0.81;0.35;-0.09;-0.09;-0.27;0.27;-0.25;-0.02;1100.12;1305.45;1283.34;3214.82;3201.38;54.41;90.96;120.03;6.64;3.51;2;1;1;8.55;1.35;7.91;8.55;1.35;7.91;2;1;1;799.25;829.05;6.92;1.87;766.9;1.52;0.06;0.04;0.04;1.35;41.67;62.04;-0.15;0.01;-0.26;-0.03;1735.49;213.3;282.44;257.19;52.14;1.44;249.27;4.85;0.88;0.19;0.17
185;R194;L3-1-S82;c1cc2c(c(c1P(c1ccccc1)c1ccccc1)c1c(ccc3c1cccc3)P(c1ccccc1)c1ccccc1)cccc2.C(=C(\C)/NC(=O)C)\C(=O)OC.OC;;92;25;1.09;1.43;1.85;1.5;1.39;1.86;1.42;1.09;1.39;119.37;116.92;118.89;121.57;120;117.79;123.01;122.67;119.54;119.51;8.88;176.85;173.4;2.68;179.27;2.68;79.94;2.89;3.03;2.8;2.89;22.91;32.27;21.11;279.74;297.99;19.05;17.47;20.3;34.65;23.92;0.27;-0.25;-0.33;0.9;0.91;-0.33;-0.02;-0.04;-0.25;0.27;-0.25;-0.02;1228.08;1197.56;1173.07;3219.05;3224.22;0.88;1.52;1.48;13.64;3.74;2;1;1;7.12;2.38;5.84;7.12;2.38;5.84;2;1;1;597.92;662.43;0;1.63;622.69;3.09;0.09;0.06;0.06;1.36;88.52;31.39;-0.46;0.27;-0.29;-0.01;1711.63;117.5;193.63;164.58;41.14;1.33;157.17;9.65;2.62;0.53;0.44
186;R195;L3-1-S83;c1cc2c(c(c1P(c1ccccc1)c1ccccc1)c1c(ccc3c1cccc3)P(c1ccccc1)c1ccccc1)cccc2.C(=C(\CC(C)C)/NC(=O)C)/C(=O)OC.OC;;87;25;1.49;1.42;1.39;1.49;1.38;1.39;1.42;1.49;1.38;120.86;117.03;123.74;119.32;118.94;119.22;119.2;116.97;120.52;129.27;0.78;178.87;178.65;0.79;178.11;0.53;52.45;2.82;2.81;2.39;2.39;51.53;49.44;39.7;184.4;178.22;38.49;60.68;60.86;50.33;51.01;-0.01;-0.08;0.33;-0.82;-0.83;0.33;-0.07;-0.07;-0.09;-0.01;-0.23;-0.04;1505.32;1276.54;1276.54;1516.81;1516.81;47.38;119.67;119.67;6.97;6.97;6.4;1.53;5.61;5.23;1.35;3.89;4.92;1.35;3.98;6.4;1.53;5.61;650.7;692.74;49.81;1.72;700.73;3.71;0.07;0.04;0.04;1.34;39.71;79.16;0.14;-0.45;-0.28;-0.02;1740.73;100.69;235.73;213.6;25.51;1.36;229.2;3.31;1.15;0.25;0.23
187;R196;L3-1-S84;c1cc2c(c(c1P(c1ccccc1)c1ccccc1)c1c(ccc3c1cccc3)P(c1ccccc1)c1ccccc1)cccc2.C(=C\1/c2c(CCN1C(=O)C)cc(c(c2)OC)OC)\c1ccc(c(c1)OC)OC.OCC;;99.5;23;1.09;1.43;1.85;1.5;1.39;1.86;1.42;1.09;1.39;119.36;116.94;118.88;121.55;119.99;117.77;123;122.69;119.53;119.51;8.89;176.85;173.43;2.8;179.24;2.76;79.95;2.89;3.03;2.8;2.89;23;53.96;41.44;366.24;383.3;39.66;37.48;42.35;55.16;23.88;0.27;-0.25;-0.33;0.9;0.91;-0.33;-0.02;-0.04;-0.25;0.27;-0.25;-0.02;1228.24;1197.77;1173.17;3218.98;3224.16;0.86;1.58;1.38;2.12;7.92;2;1;1;7.12;2.38;5.84;7.12;2.38;5.84;2;1;1;597.86;662.41;0;1.63;622.69;3.05;0.09;0.06;0.06;1.35;46.92;64.12;0.17;-0.23;-0.25;-0.02;1747.22;30.88;406.3;397.05;41.1;1.56;383.44;4.66;0.35;0.08;0.07
188;R197;L3-1-S85;c1cc2c(c(c1P(c1ccccc1)c1ccccc1)c1c(ccc3c1cccc3)P(c1ccccc1)c1ccccc1)cccc2.C(=C\1/c2c(CCN1C(=O)c1ccccc1)cc(c(c2)OC)OC)\c1ccc(c(c1)OC)OC.OCC;;96;23;1.36;1.44;1.86;1.5;1.38;1.87;1.43;1.36;1.38;114.24;111.26;118.21;122.98;122.34;115.46;130.2;126.08;115.76;118.46;6.96;178.9;176.26;0.06;176.18;4.25;89.12;2.73;3.14;2.74;2.95;203.98;29.79;57.59;378.16;391.78;51.16;41.18;38.85;29.62;203.49;-0.55;0.34;-0.36;0.91;0.89;-0.35;-0.01;-0.02;0.34;-0.56;-0.25;-0.02;1188.06;1188.06;1177.78;1260.66;1252.32;4.41;4.41;16.54;226.21;180.04;7.27;1.35;5.31;7.12;2.38;5.84;7.12;2.38;5.84;7.27;1.35;5.31;787;881;7.2;1.77;834.94;3.86;0.06;0.03;0.03;1.33;80.81;50.47;-0.44;0.03;-0.3;0.01;1741.77;389.88;173.2;146;44.92;1.29;143.14;8.49;2.06;1;0.92
189;R198;L3-1-S86;c1cc2c(c(c1P(c1ccccc1)c1ccccc1)c1c(ccc3c1cccc3)P(c1ccccc1)c1ccccc1)cccc2.C(=C\1/c2c(CCN1C=O)cc(c(c2)OC)OC)\c1ccc(c(c1)OC)OC.OCC;;99.5;23;1.09;1.43;1.85;1.5;1.39;1.86;1.42;1.09;1.39;119.36;116.94;118.88;121.55;119.99;117.77;123;122.69;119.53;119.51;8.89;176.85;173.43;2.8;179.24;2.76;79.95;2.89;3.03;2.8;2.89;23;53.96;41.44;366.24;383.3;39.66;37.48;42.35;55.16;23.88;0.27;-0.25;-0.33;0.9;0.91;-0.33;-0.02;-0.04;-0.25;0.27;-0.25;-0.02;1228.24;1197.77;1173.17;3218.98;3224.16;0.86;1.58;1.38;2.12;7.92;2;1;1;7.12;2.38;5.84;7.12;2.38;5.84;2;1;1;597.86;662.41;0;1.63;622.69;3.05;0.09;0.06;0.06;1.35;50.25;71.16;0.18;-0.25;-0.25;-0.02;1734.46;208.91;390.77;379.33;41.58;1.54;369.42;4.84;0.38;0.08;0.07