index;name;L-S;smiles;comment;%ee;T;BL32-1;BL1-6;BL6-34;BL5-12;BL12-11;BL33-11;BL11-16;BL16-31;BL6-5;BA32-1-6;BA1-6-34;BA1-6-5;BA6-5-12;BA5-12-11;BA12-11-33;BA5-6-34;BA33-11-16;BA11-16-31;BA12-11-16;DA32-1-6-34;DA32-1-6-5;DA1-6-5-12;DA5-12-11-33;DA12-11-16-31;DA33-11-16-31;DA6-5-12-11;NB32-34;NB33-31;NB1-34;NB33-16;NMR 32;NMR1;NMR6;NMR34;NMR33;NMR11;NMR12;NMR5;NMR16;NMR31;q32;q1;q6;q34;q33;q11;q12;q5;q16;q31;HOMO;LUMO;VF5-12;VF6-34;VF11-33;VF1-32;VF16-31;VI5-12;VI6-34;VI11-33;VI1-32;VI16-31;L1R1;B1R1;B5R1;L1R2;B1R2;B5R2;L1R3;B1R3;B5R3;L1R4;B1R4;B5R4;Area; Vol;PSA; Ovality;MW;dipolemoment;RCx;RCy;RCz;BL12-16S;NMR12-S;NMR16-S;q12-S;q16-S;HOMO-S;LUMO-S;VF12-16S;VI12-16S;Area-S; Vol-S;PSA-S; Ovality-S;MW-S;dipolemoment-S;RCx-S;RCy-S;RCz-S
266;R288;L5-3-S139;c1(cc2c(c3-c4c(c(cc5c4cccc5)[Si](c4ccccc4)(c4ccccc4)c4ccccc4)OP(=O)(Oc13)O)cccc2)[Si](c1ccccc1)(c1ccccc1)c1ccccc1.C(=C)(c1ccc(cc1O[Si](C)(C)C)OC)c1ccc(cc1)C=C.ClCCl;;98;24;1.89;1.42;1.4;1.49;1.38;1.39;1.42;1.89;1.38;121.25;116.69;124.35;120.56;120.86;118.68;118.77;116.82;121.3;125.99;6.99;167.89;169.07;2.4;168.33;6.93;55.55;3.05;3.06;2.4;2.4;401.91;54.13;35.71;172.72;171.5;33.26;62.02;62.41;55.54;403.72;1.89;-0.55;0.33;-0.83;-0.83;0.34;-0.08;-0.07;-0.56;1.89;-0.26;-0.03;1498.8;1272.18;1272.18;786.91;786.91;65.57;128.32;128.32;37.77;37.77;6.38;4.21;6.49;5.23;1.35;3.89;4.92;1.35;3.98;6.38;4.21;6.49;825.6;886.42;42.16;1.85;865.09;4.21;0.06;0.03;0.03;1.34;36.85;66.42;-0.05;-0.41;-0.25;-0.01;1723.55;52.04;434.25;419.97;12.07;1.6;374.56;3.32;0.34;0.07;0.06
267;R289;L5-3-S140;c1(cc2c(c3-c4c(c(cc5c4cccc5)[Si](c4ccccc4)(c4ccccc4)c4ccccc4)OP(=O)(Oc13)O)cccc2)[Si](c1ccccc1)(c1ccccc1)c1ccccc1.C(=C)(c1ccc(cc1O[Si](C)(C)C)OC)c1ccc(cc1)c1ccccc1.ClCCl;;98;24;1.89;1.42;1.4;1.49;1.38;1.39;1.42;1.89;1.38;121.25;116.69;124.35;120.56;120.86;118.68;118.77;116.82;121.3;125.99;6.99;167.89;169.07;2.4;168.33;6.93;55.55;3.05;3.06;2.4;2.4;401.91;54.13;35.71;172.72;171.5;33.26;62.02;62.41;55.54;403.72;1.89;-0.55;0.33;-0.83;-0.83;0.34;-0.08;-0.07;-0.56;1.89;-0.26;-0.03;1498.8;1272.18;1272.18;786.91;786.91;65.57;128.32;128.32;37.77;37.77;6.38;4.21;6.49;5.23;1.35;3.89;4.92;1.35;3.98;6.38;4.21;6.49;825.6;886.42;42.16;1.85;865.09;4.21;0.06;0.03;0.03;1.34;31.39;67.03;-0.05;-0.43;-0.26;0;1715.12;35.33;387.43;369.17;11.19;1.56;324.5;2.09;0.41;0.13;0.12
268;R290;L5-3-S141;c1(cc2c(c3-c4c(c(cc5c4cccc5)[Si](c4ccccc4)(c4ccccc4)c4ccccc4)OP(=O)(Oc13)O)cccc2)[Si](c1ccccc1)(c1ccccc1)c1ccccc1.C(=C)(c1ccc(cc1O[Si](C)(C)C)OC)c1ccc(cc1)F.ClCCl;;97;24;1.08;1.41;1.38;1.49;1.38;1.38;1.41;1.08;1.38;118.61;117.19;122.28;119.74;119.06;119;120.48;118.03;118.48;122.92;1.27;176.12;175.41;0.13;178.27;1.04;53.33;2.58;2.59;2.38;2.4;22.98;59.54;33.86;155.57;167.37;37.27;56.33;58.48;62.94;23.54;0.26;-0.27;0.34;-0.83;-0.83;0.31;-0.07;-0.08;-0.28;0.27;-0.24;-0.02;1525.11;1255.47;1280.94;3232.38;3231.97;57.18;94.63;162.07;6.55;2.86;2;1;1;11.99;3.24;8.27;7.04;1.35;10.3;2;1;1;682.39;764.67;13.03;1.69;745.8;1.54;0.09;0.04;0.04;1.31;23.18;-90.11;0.25;-0.48;-0.26;0.04;1663.45;25.31;177.03;162.32;7.03;1.23;143.19;2.17;2.8;0.86;0.66
269;R291;L5-3-S142;c1(cc2c(c3-c4c(c(cc5c4cccc5)[Si](c4ccccc4)(c4ccccc4)c4ccccc4)OP(=O)(Oc13)O)cccc2)[Si](c1ccccc1)(c1ccccc1)c1ccccc1.C(=C)(c1ccc(cc1O[Si](C)(C)C)OC)c1c2ccccc2ccc1.ClCCl;;75;24;1.09;1.43;1.85;1.5;1.39;1.86;1.42;1.09;1.39;119.31;117.17;118.86;121.45;120.04;117.7;122.8;122.76;119.44;119.51;8.94;176.89;174.09;3.21;179.06;3.02;80.1;2.9;3.03;2.81;2.89;23.02;54.02;41.63;365.63;383.84;39.55;37.46;42.18;55.15;23.97;0.27;-0.25;-0.33;0.9;0.91;-0.33;-0.02;-0.04;-0.25;0.26;-0.25;-0.02;1228.68;1198.75;1189.53;3214.44;3224.42;0.71;2.02;2.05;2.59;12.72;2;1;1;7.12;2.38;5.84;7.12;2.38;5.84;2;1;1;599.12;662.49;0;1.63;622.69;2.78;0.09;0.06;0.06;1.34;38.07;78.61;-0.03;-0.46;-0.25;0.02;1745.95;40.28;214.1;199.76;6.95;1.3;174.24;1.11;1.81;0.5;0.4
270;R292;L5-3-S143;c1(cc2c(c3-c4c(c(cc5c4cccc5)[Si](c4ccccc4)(c4ccccc4)c4ccccc4)OP(=O)(Oc13)O)cccc2)[Si](c1ccccc1)(c1ccccc1)c1ccccc1.C(=C)(c1ccccc1O[Si](C)(C)C)c1ccc(cc1)OC.ClCCl;;80;24;1.89;1.42;1.4;1.49;1.38;1.39;1.42;1.89;1.38;121.25;116.69;124.35;120.56;120.86;118.68;118.77;116.82;121.3;125.99;6.99;167.89;169.07;2.4;168.33;6.93;55.55;3.05;3.06;2.4;2.4;401.91;54.13;35.71;172.72;171.5;33.26;62.02;62.41;55.54;403.72;1.89;-0.55;0.33;-0.83;-0.83;0.34;-0.08;-0.07;-0.56;1.89;-0.26;-0.03;1498.8;1272.18;1272.18;786.91;786.91;65.57;128.32;128.32;37.77;37.77;6.38;4.21;6.49;5.23;1.35;3.89;4.92;1.35;3.98;6.38;4.21;6.49;825.6;886.42;42.16;1.85;865.09;4.21;0.06;0.03;0.03;1.34;36.95;67.95;-0.05;-0.42;-0.25;0.01;1723.86;45.9;355.49;336.78;12.19;1.52;298.46;1.9;0.57;0.13;0.12
271;R293;L5-4-S3;c1(cc2c(c3-c4c(c(cc5c4cccc5)c4c5ccccc5cc5c4C=CC=C5)O[P@@](=O)(Oc13)O)cccc2)c1c2ccccc2cc2c1C=CC=C2.C(=C)(c1ccccc1)NC(=O)C.c1(ccccc1)C;;91;50;1.89;1.42;1.39;1.49;1.38;1.39;1.42;1.89;1.38;121.47;116.67;124.23;120.61;120.76;118.79;118.9;116.84;121.35;126.32;5.21;169.6;169.69;2.54;168.55;6.88;55.11;3.06;3.06;2.39;2.39;400.09;53.2;35.15;172.22;168.95;32.68;61.85;62.51;55.18;402.59;1.89;-0.55;0.34;-0.83;-0.83;0.34;-0.08;-0.08;-0.55;1.89;-0.26;-0.02;1500.07;1277.65;1277.65;787.23;787.23;52.93;94.94;94.94;28.57;28.57;6.38;4.21;6.49;5.23;1.35;3.89;4.92;1.35;3.98;6.38;4.21;6.49;822.06;885.7;40.55;1.84;865.09;3.54;0.06;0.03;0.03;1.28;6.59;-100.62;0.28;-0.63;-0.27;0;1746.32;154;247.11;231.36;37.6;1.36;211.26;2.8;1.18;0.29;0.26
272;R294;L5-4-S144;c1(cc2c(c3-c4c(c(cc5c4cccc5)c4c5ccccc5cc5c4C=CC=C5)O[P@@](=O)(Oc13)O)cccc2)c1c2ccccc2cc2c1C=CC=C2.C(=C)(c1ccc(cc1)C)NC(=O)C.c1(ccccc1)C;;91;50;1.09;1.41;1.38;1.49;1.38;1.38;1.41;1.08;1.38;118.49;118.13;122.59;118.57;119.32;120.78;119.27;117.08;118.37;122.08;0.06;178.78;178.3;1.39;176.71;0.51;52.7;2.59;2.57;2.39;2.38;23.29;62.28;35.8;162.16;151.78;36.19;60.96;58.97;60.24;23.76;0.27;-0.28;0.32;-0.83;-0.83;0.32;-0.09;-0.08;-0.28;0.27;-0.25;-0.02;1522.69;1279.47;1252.94;3229.41;3243.51;100.07;233.63;101.09;5.97;2.72;2;1;1;5.03;1.35;7.53;10.26;1.92;4.58;2;1;1;427.27;443.34;15.41;1.52;435.46;2.02;0.23;0.11;0.08;1.29;-1.93;63.11;0.42;-0.7;-0.28;-0.06;1735.95;490.72;286.5;265.76;13.04;1.43;245.75;15.34;0.49;0.28;0.19
273;R295;L5-4-S4;c1(cc2c(c3-c4c(c(cc5c4cccc5)c4c5ccccc5cc5c4C=CC=C5)O[P@@](=O)(Oc13)O)cccc2)c1c2ccccc2cc2c1C=CC=C2.C(=C)(c1ccc(cc1)Cl)NC(=O)C.c1(ccccc1)C;;92;50;1.5;1.43;1.38;1.49;1.38;1.38;1.42;1.5;1.38;119.09;116.93;122.83;118.97;118.78;119.02;120.22;117.85;119.27;123.11;0.1;177.94;176.04;0.56;179.81;1.61;53.05;2.78;2.8;2.39;2.4;174.92;50.47;34.07;145.81;170.46;35.66;58.5;60.65;50.47;173.89;-0.71;-0.06;0.34;-0.83;-0.83;0.33;-0.07;-0.08;-0.06;-0.72;-0.25;-0.01;1514.86;1268.57;1281.21;1142.19;1133.9;69.11;55.67;224.42;73.62;49.91;2.99;1.5;2.04;9.68;1.35;11.12;10.56;1.66;8.01;2.99;1.5;2.04;661.57;689.16;14.09;1.75;661.72;4.6;0.1;0.04;0.04;1.28;16.46;-104.16;0.33;-0.49;-0.26;-0.01;1754.7;407.01;270.21;253.03;12.83;1.4;225.29;4.58;1.89;0.17;0.16
274;R296;L5-4-S145;c1(cc2c(c3-c4c(c(cc5c4cccc5)c4c5ccccc5cc5c4C=CC=C5)O[P@@](=O)(Oc13)O)cccc2)c1c2ccccc2cc2c1C=CC=C2.C(=C)(c1ccc(cc1)F)NC(=O)C.c1(ccccc1)C;;90;50;1.49;1.42;1.39;1.49;1.38;1.39;1.42;1.49;1.38;120.86;117.03;123.74;119.32;118.94;119.22;119.2;116.97;120.52;129.27;0.78;178.87;178.65;0.79;178.11;0.53;52.45;2.82;2.81;2.39;2.39;51.53;49.44;39.7;184.4;178.22;38.49;60.68;60.86;50.33;51.01;-0.01;-0.08;0.33;-0.82;-0.83;0.33;-0.07;-0.07;-0.09;-0.01;-0.23;-0.04;1505.32;1276.54;1276.54;1516.81;1516.81;47.38;119.67;119.67;6.97;6.97;6.4;1.53;5.61;5.23;1.35;3.89;4.92;1.35;3.98;6.4;1.53;5.61;650.7;692.74;49.81;1.72;700.73;3.71;0.07;0.04;0.04;1.34;39.82;82.05;0.14;-0.46;-0.27;0;1739.38;121.51;206.16;186.39;25.5;1.31;179.19;3.13;1.52;0.47;0.41
275;R297;L5-4-S107;c1(cc2c(c3-c4c(c(cc5c4cccc5)c4c5ccccc5cc5c4C=CC=C5)O[P@@](=O)(Oc13)O)cccc2)c1c2ccccc2cc2c1C=CC=C2.C=C(NC(=O)C)c1ccc(cc1)C(F)(F)F.c1(ccccc1)C;;87;50;1.09;1.41;1.37;1.49;1.38;1.38;1.41;1.09;1.38;118.29;117.64;122.25;118.76;118.48;119.61;120.11;117.91;118.46;122.45;0.25;178.41;178.36;0.04;178.64;0.49;52.67;2.58;2.59;2.39;2.39;23.3;61.12;34.48;141.59;169.68;35.55;58.62;59.44;62.03;23.31;0.27;-0.28;0.32;-0.83;-0.83;0.32;-0.08;-0.09;-0.28;0.27;-0.25;-0.02;1521.61;1252;1280.81;3225.36;3233.88;104.79;45.37;141.12;5.43;10.07;2;1;1;7.75;2.01;3.87;4.65;1.35;7.56;2;1;1;392.82;402.68;15.6;1.49;399.43;2.59;0.24;0.13;0.1;1.28;15.26;-112.57;0.33;-0.48;-0.27;-0.01;1756.86;378.83;240.71;226.13;5.88;1.34;195.26;2.59;2;0.27;0.25
276;R298;L5-4-S146;c1(cc2c(c3-c4c(c(cc5c4cccc5)c4c5ccccc5cc5c4C=CC=C5)O[P@@](=O)(Oc13)O)cccc2)c1c2ccccc2cc2c1C=CC=C2.C(=C)(c1ccc(cc1)OC)NC(=O)C.c1(ccccc1)C;;95;50;1.89;1.42;1.39;1.49;1.38;1.39;1.42;1.9;1.38;119.14;116.45;124.75;119.96;120.77;118.69;118.66;116.75;122.34;126.84;10.59;165.02;168.51;0.03;168.84;6.8;55.25;3;3.09;2.39;2.39;404.38;54.59;34.9;172.45;171.4;32.81;62.04;62.14;55.09;400.77;1.89;-0.55;0.33;-0.83;-0.83;0.34;-0.07;-0.07;-0.55;1.89;-0.26;-0.03;1498.77;1276.5;1276.5;786.32;786.32;62.49;123.35;123.35;26.67;26.67;6.38;4.21;6.49;5.23;1.35;3.89;4.92;1.35;3.98;6.38;4.21;6.49;820.72;885.82;40.88;1.84;865.09;3.62;0.06;0.03;0.03;1.34;32.4;68.29;-0.05;-0.43;-0.25;0.01;1724.5;45.34;262.83;248.24;24.63;1.38;226.28;3.7;1.1;0.25;0.23
277;R299;L5-4-S127;c1(cc2c(c3-c4c(c(cc5c4cccc5)c4c5ccccc5cc5c4C=CC=C5)O[P@@](=O)(Oc13)O)cccc2)c1c2ccccc2cc2c1C=CC=C2.C(=C)(c1cc(ccc1)OC)NC(=O)C.c1(ccccc1)C;;74;50;1.49;1.42;1.39;1.49;1.38;1.39;1.42;1.49;1.38;120.86;117.03;123.74;119.32;118.94;119.22;119.2;116.97;120.52;129.27;0.78;178.87;178.65;0.79;178.11;0.53;52.45;2.82;2.81;2.39;2.39;51.53;49.44;39.7;184.4;178.22;38.49;60.68;60.86;50.33;51.01;-0.01;-0.08;0.33;-0.82;-0.83;0.33;-0.07;-0.07;-0.09;-0.01;-0.23;-0.04;1505.32;1276.54;1276.54;1516.81;1516.81;47.38;119.67;119.67;6.97;6.97;6.4;1.53;5.61;5.23;1.35;3.89;4.92;1.35;3.98;6.4;1.53;5.61;650.7;692.74;49.81;1.72;700.73;3.71;0.07;0.04;0.04;1.34;38.67;81.61;0.14;-0.46;-0.27;0;1737.99;82.51;229.7;208.66;32.42;1.35;191.23;2.58;0.92;0.52;0.4
278;R300;L5-4-S147;c1(cc2c(c3-c4c(c(cc5c4cccc5)c4c5ccccc5cc5c4C=CC=C5)O[P@@](=O)(Oc13)O)cccc2)c1c2ccccc2cc2c1C=CC=C2.C(=C)(NC(=O)C)c1c2ccccc2ccc1.c1(ccccc1)C;;89;50;1.49;1.42;1.39;1.49;1.38;1.39;1.42;1.49;1.38;120.86;117.03;123.74;119.32;118.94;119.22;119.2;116.97;120.52;129.27;0.78;178.87;178.65;0.79;178.11;0.53;52.45;2.82;2.81;2.39;2.39;51.53;49.44;39.7;184.4;178.22;38.49;60.68;60.86;50.33;51.01;-0.01;-0.08;0.33;-0.82;-0.83;0.33;-0.07;-0.07;-0.09;-0.01;-0.23;-0.04;1505.32;1276.54;1276.54;1516.81;1516.81;47.38;119.67;119.67;6.97;6.97;6.4;1.53;5.61;5.23;1.35;3.89;4.92;1.35;3.98;6.4;1.53;5.61;650.7;692.74;49.81;1.72;700.73;3.71;0.07;0.04;0.04;1.34;38.81;83.26;0.14;-0.48;-0.26;-0.02;1729.59;134.86;243.64;232.67;24.76;1.33;211.26;3.64;0.76;0.46;0.37
279;R301;L5-4-S148;c1(cc2c(c3-c4c(c(cc5c4cccc5)c4c5ccccc5cc5c4C=CC=C5)O[P@@](=O)(Oc13)O)cccc2)c1c2ccccc2cc2c1C=CC=C2.C(=C)(c1cc2c(cc1)cccc2)NC(=O)C.c1(ccccc1)C;;94;50;1.49;1.42;1.39;1.49;1.38;1.39;1.42;1.49;1.38;120.97;117.08;123.7;119.14;119.14;119.12;119.2;117.17;120.62;130.11;0.18;178.96;177.07;0.54;177.47;2.42;53.07;2.82;2.81;2.4;2.4;48.03;47.19;40.9;183.65;177.79;39.67;60.95;61;47.95;46.64;-0.03;-0.08;0.33;-0.82;-0.83;0.33;-0.07;-0.07;-0.08;-0.03;-0.25;-0.03;1506.25;1280.54;1280.54;1516.58;1516.58;23.3;60.06;60.06;10.89;10.89;8.46;1.52;5.63;5.23;1.35;3.89;4.92;1.35;3.98;8.46;1.52;5.63;654.45;693.04;50.89;1.73;700.73;3.36;0.07;0.04;0.03;1.34;57.45;54.08;-0.24;-0.02;-0.23;0.02;1768.26;57.99;330.18;313.96;16.52;1.48;279.38;0.83;0.86;0.11;0.1
280;R308;L5-8-S149;c1(cc2c(c3-c4c(c(cc5c4cccc5)c4cc(cc(c4)C(F)(F)F)C(F)(F)F)OP(=O)(Oc13)O)cccc2)c1cc(cc(c1)C(F)(F)F)C(F)(F)F.C(=N\c1ccc(cc1)OC)(/c1cc2ccccc2cc1)\C.c1ccccc1;;70;60;1.49;1.42;1.39;1.49;1.38;1.39;1.42;1.48;1.38;121.93;117.47;123.09;119.72;119.58;118.61;119.25;117.59;121.38;126.3;1.05;173.83;171.62;0.2;178.73;0.54;53.75;2.85;2.84;2.41;2.4;43.04;49.8;42.68;184.33;185.61;42.3;59.67;60.7;51.16;43.08;-0.04;-0.08;0.33;-0.83;-0.83;0.33;-0.06;-0.07;-0.08;-0.04;-0.27;-0.04;1567.85;1227.36;1238.23;1505.24;1505.24;30.37;20.67;68.24;27.67;27.67;6.96;2.28;4.9;5.23;1.35;3.89;4.92;1.35;3.98;6.96;2.28;4.9;614.42;616.41;49.73;1.75;772.48;8.36;0.06;0.03;0.03;1.28;18.58;-128.29;0.32;-0.46;-0.27;-0.03;1769.61;250.33;275.92;257.84;5.79;1.41;263.26;3.62;1.39;0.13;0.12
281;R309;L5-8-S150;c1(cc2c(c3-c4c(c(cc5c4cccc5)c4cc(cc(c4)C(F)(F)F)C(F)(F)F)OP(=O)(Oc13)O)cccc2)c1cc(cc(c1)C(F)(F)F)C(F)(F)F.C(=N\c1ccccc1)(/c1cc2ccccc2cc1)\C.c1ccccc1;;68;60;1.5;1.42;1.4;1.49;1.38;1.39;1.42;1.5;1.38;120.75;116.68;124.2;119.7;119.38;118.96;119.07;116.71;120.69;131.21;3.06;179.43;177.62;1.16;176.37;6.33;51.16;2.81;2.81;2.4;2.39;51.21;47.47;40.74;184.99;179.3;39.59;61.62;61.24;49.09;51.4;-0.06;-0.07;0.32;-0.83;-0.83;0.33;-0.07;-0.07;-0.08;-0.07;-0.26;-0.03;1569.33;1249.35;1249.35;1538.84;1538.84;24.47;75.3;75.3;17.27;17.27;8.48;3.09;5.68;5.23;1.35;3.89;4.92;1.35;3.98;8.48;3.09;5.68;795.33;813.49;47.35;1.89;752.98;4.47;0.06;0.04;0.03;1.34;32.42;68.05;-0.05;-0.43;-0.25;0.01;1723.1;49.74;262.83;248.27;24.63;1.38;226.28;3.84;1.1;0.25;0.23
282;R310;L5-8-S151;c1(cc2c(c3-c4c(c(cc5c4cccc5)c4cc(cc(c4)C(F)(F)F)C(F)(F)F)OP(=O)(Oc13)O)cccc2)c1cc(cc(c1)C(F)(F)F)C(F)(F)F.C(=N\c1ccccc1)(/c1ccc(cc1)C(F)(F)F)\C.c1ccccc1;;70;60;1.49;1.42;1.39;1.49;1.38;1.39;1.42;1.48;1.38;121.93;117.46;123.09;119.73;119.58;118.6;119.25;117.59;121.38;126.33;1.04;173.84;171.62;0.21;178.73;0.52;53.76;2.85;2.84;2.41;2.4;43.03;49.83;42.7;184.43;185.64;42.32;59.68;60.7;51.17;43.09;-0.04;-0.08;0.33;-0.83;-0.83;0.33;-0.06;-0.07;-0.08;-0.04;-0.27;-0.04;1567.76;1254.51;1254.51;1505.17;1505.17;30.82;285.17;285.17;27.94;27.94;6.96;2.28;4.9;5.23;1.35;3.89;4.92;1.35;3.98;6.96;2.28;4.9;614.41;616.41;49.72;1.75;772.48;8.41;0.06;0.03;0.03;1.28;18.16;-116.71;0.32;-0.47;-0.24;-0.02;1763.84;242.54;316.35;304.08;12.81;1.45;275.35;1.46;1.07;0.11;0.1
283;R311;L5-8-S152;c1(cc2c(c3-c4c(c(cc5c4cccc5)c4cc(cc(c4)C(F)(F)F)C(F)(F)F)OP(=O)(Oc13)O)cccc2)c1cc(cc(c1)C(F)(F)F)C(F)(F)F.C(=N\c1ccc(cc1)OC)(/c1ccc(cc1)C(F)(F)F)\C.c1ccccc1;;72;60;1.49;1.42;1.39;1.49;1.38;1.39;1.42;1.48;1.38;121.93;117.47;123.09;119.72;119.58;118.61;119.25;117.59;121.38;126.3;1.05;173.83;171.62;0.2;178.73;0.54;53.75;2.85;2.84;2.41;2.4;43.04;49.8;42.68;184.33;185.61;42.3;59.67;60.7;51.16;43.08;-0.04;-0.08;0.33;-0.83;-0.83;0.33;-0.06;-0.07;-0.08;-0.04;-0.27;-0.04;1567.85;1227.36;1238.23;1505.24;1505.24;30.37;20.67;68.24;27.67;27.67;6.96;2.28;4.9;5.23;1.35;3.89;4.92;1.35;3.98;6.96;2.28;4.9;614.42;616.41;49.73;1.75;772.48;8.36;0.06;0.03;0.03;1.28;19.02;-125.57;0.32;-0.46;-0.26;-0.02;1771.04;273.24;291.91;271.45;13.27;1.44;304.19;1.92;1.15;0.1;0.09
284;R312;L5-8-S8;c1(cc2c(c3-c4c(c(cc5c4cccc5)c4cc(cc(c4)C(F)(F)F)C(F)(F)F)OP(=O)(Oc13)O)cccc2)c1cc(cc(c1)C(F)(F)F)C(F)(F)F.C(=N\c1ccc(cc1)OC)(/c1ccccc1)\C.c1ccccc1;;74;60;1.49;1.42;1.39;1.49;1.38;1.39;1.42;1.48;1.38;121.93;117.47;123.09;119.72;119.58;118.61;119.25;117.59;121.38;126.3;1.05;173.83;171.62;0.2;178.73;0.54;53.75;2.85;2.84;2.41;2.4;43.04;49.8;42.68;184.33;185.61;42.3;59.67;60.7;51.16;43.08;-0.04;-0.08;0.33;-0.83;-0.83;0.33;-0.06;-0.07;-0.08;-0.04;-0.27;-0.04;1567.85;1227.36;1238.23;1505.24;1505.24;30.37;20.67;68.24;27.67;27.67;6.96;2.28;4.9;5.23;1.35;3.89;4.92;1.35;3.98;6.96;2.28;4.9;614.42;616.41;49.73;1.75;772.48;8.36;0.06;0.03;0.03;1.28;18.04;-118.71;0.33;-0.47;-0.26;-0.01;1767.66;301.29;271.78;253.41;13.29;1.4;225.29;3.44;1.83;0.17;0.17
285;R313;L5-8-S7;c1(cc2c(c3-c4c(c(cc5c4cccc5)c4cc(cc(c4)C(F)(F)F)C(F)(F)F)OP(=O)(Oc13)O)cccc2)c1cc(cc(c1)C(F)(F)F)C(F)(F)F.C(=N\c1ccccc1)(/c1ccccc1)\C.c1ccccc1;;72;60;1.49;1.42;1.39;1.49;1.38;1.39;1.42;1.48;1.38;121.93;117.47;123.09;119.72;119.58;118.61;119.25;117.59;121.38;126.3;1.05;173.83;171.62;0.2;178.73;0.54;53.75;2.85;2.84;2.41;2.4;43.04;49.8;42.68;184.33;185.61;42.3;59.67;60.7;51.16;43.08;-0.04;-0.08;0.33;-0.83;-0.83;0.33;-0.06;-0.07;-0.08;-0.04;-0.27;-0.04;1567.85;1227.36;1238.23;1505.24;1505.24;30.37;20.67;68.24;27.67;27.67;6.96;2.28;4.9;5.23;1.35;3.89;4.92;1.35;3.98;6.96;2.28;4.9;614.42;616.41;49.73;1.75;772.48;8.36;0.06;0.03;0.03;1.28;19.14;-110.4;0.33;-0.48;-0.25;0;1760.39;320.95;301.19;280.28;20.22;1.45;255.32;5.06;1.75;0.12;0.11
286;R314;L5-8-S154;c1(cc2c(c3-c4c(c(cc5c4cccc5)c4cc(cc(c4)C(F)(F)F)C(F)(F)F)OP(=O)(Oc13)O)cccc2)c1cc(cc(c1)C(F)(F)F)C(F)(F)F.C(=N\c1ccc(cc1)OC)(/c1ccccc1F)\C.c1ccccc1;;84;60;1.09;1.42;1.37;1.49;1.38;1.37;1.42;1.09;1.38;119.23;120.33;121.33;119.27;119.84;119.6;118.23;118.73;118.35;121.66;4.16;179.73;178.62;2.86;179.7;1.24;99.41;2.65;2.6;2.42;2.4;23.27;62.51;30.72;219.03;223.25;27.83;56.86;58.49;52.81;23.5;0.27;-0.3;0.34;-0.81;-0.81;0.34;-0.07;-0.08;-0.08;0.27;-0.25;-0.01;1100.12;1305.45;1283.34;3214.82;3201.38;54.41;90.96;120.03;6.64;3.51;2;1;1;5.64;1.35;5.5;5.64;1.35;5.5;2;1;1;534.62;545.48;10.81;1.66;514.59;2.39;0.12;0.1;0.09;1.33;85.87;48.18;-0.47;0.04;-0.29;0.02;1747.17;183.33;172.14;146;44.24;1.28;143.14;7.35;2.03;1.01;0.92
287;R315;L5-8-S155;c1(cc2c(c3-c4c(c(cc5c4cccc5)c4cc(cc(c4)C(F)(F)F)C(F)(F)F)OP(=O)(Oc13)O)cccc2)c1cc(cc(c1)C(F)(F)F)C(F)(F)F.C(=N\c1ccc(cc1)OC)(/c1ccccc1C)\C.c1ccccc1;;78;60;1.49;1.42;1.39;1.49;1.38;1.39;1.42;1.49;1.38;120.97;117.08;123.7;119.14;119.14;119.12;119.2;117.17;120.62;130.11;0.18;178.96;177.07;0.54;177.47;2.42;53.07;2.82;2.81;2.4;2.4;48.03;47.19;40.9;183.65;177.79;39.67;60.95;61;47.95;46.64;-0.03;-0.08;0.33;-0.82;-0.83;0.33;-0.07;-0.07;-0.08;-0.03;-0.25;-0.03;1506.25;1280.54;1280.54;1516.58;1516.58;23.3;60.06;60.06;10.89;10.89;8.46;1.52;5.63;5.23;1.35;3.89;4.92;1.35;3.98;8.46;1.52;5.63;654.45;693.04;50.89;1.73;700.73;3.36;0.07;0.04;0.03;1.34;55.51;54.71;-0.23;-0.02;-0.23;0.02;1762.91;31.35;252.49;234.59;17.8;1.37;221.28;2.27;1.02;0.33;0.27
288;R316;L5-8-S156;c1(cc2c(c3-c4c(c(cc5c4cccc5)c4cc(cc(c4)C(F)(F)F)C(F)(F)F)OP(=O)(Oc13)O)cccc2)c1cc(cc(c1)C(F)(F)F)C(F)(F)F.C(=N\c1ccc(cc1)OC)(/c1ccc(cc1C)C)\C.c1ccccc1;;78;60;1.52;1.44;1.86;1.5;1.39;1.88;1.44;1.51;1.39;122.81;112.93;119.22;122.97;121.81;113.64;127.85;127.36;120.3;118.99;2.73;177.27;177.42;1.75;176.13;4.75;95.28;3.02;3.35;2.77;2.98;147.7;36.26;52.07;378.5;383.02;43.92;38.83;35.7;39.64;159.45;-0.47;-0.02;-0.33;0.89;0.88;-0.31;-0.01;-0.02;-0.02;-0.5;-0.25;-0.02;1312.3;1187.33;1187.33;1162.41;1187.33;1.35;1.77;1.77;5.24;1.76;8.42;1.58;4.96;7.12;2.38;5.84;7.12;2.38;5.84;8.42;1.58;4.96;811.31;897.83;0;1.8;830.99;3.9;0.05;0.03;0.03;1.34;45.2;58.82;-0.16;0.03;-0.28;-0.03;1738.46;515.55;250.21;229.24;45.26;1.38;219.24;2.52;0.93;0.33;0.27
289;R317;L5-8-S157;c1(cc2c(c3-c4c(c(cc5c4cccc5)c4cc(cc(c4)C(F)(F)F)C(F)(F)F)OP(=O)(Oc13)O)cccc2)c1cc(cc(c1)C(F)(F)F)C(F)(F)F.C(=N\c1ccc(cc1)OC)(/c1ccc(cc1)c1ccccc1)\C.c1ccccc1;;74;60;1.09;1.41;1.38;1.49;1.38;1.38;1.41;1.08;1.38;118.49;118.13;122.59;118.57;119.32;120.78;119.27;117.08;118.37;122.08;0.06;178.78;178.3;1.39;176.71;0.51;52.7;2.59;2.57;2.39;2.38;23.29;62.28;35.8;162.16;151.78;36.19;60.96;58.97;60.24;23.76;0.27;-0.28;0.32;-0.83;-0.83;0.32;-0.09;-0.08;-0.28;0.27;-0.25;-0.02;1522.69;1279.47;1252.94;3229.41;3243.51;100.07;233.63;101.09;5.97;2.72;2;1;1;5.03;1.35;7.53;10.26;1.92;4.58;2;1;1;427.27;443.34;15.41;1.52;435.46;2.02;0.23;0.11;0.08;1.3;1.29;67.92;0.42;-0.7;-0.27;-0.01;1730.66;388.51;311.76;288.06;20.07;1.48;296.2;15.3;0.31;0.19;0.13
290;R318;L5-8-S158;c1(cc2c(c3-c4c(c(cc5c4cccc5)c4cc(cc(c4)C(F)(F)F)C(F)(F)F)OP(=O)(Oc13)O)cccc2)c1cc(cc(c1)C(F)(F)F)C(F)(F)F.C(=N\c1ccc(cc1)OC)(/c1ccc(cc1)OC)\C.c1ccccc1;;72;60;1.09;1.41;1.38;1.49;1.38;1.38;1.41;1.08;1.38;118.49;118.13;122.59;118.57;119.32;120.78;119.27;117.08;118.37;122.08;0.06;178.78;178.3;1.39;176.71;0.51;52.7;2.59;2.57;2.39;2.38;23.29;62.28;35.8;162.16;151.78;36.19;60.96;58.97;60.24;23.76;0.27;-0.28;0.32;-0.83;-0.83;0.32;-0.09;-0.08;-0.28;0.27;-0.25;-0.02;1522.69;1279.47;1252.94;3229.41;3243.51;100.07;233.63;101.09;5.97;2.72;2;1;1;5.03;1.35;7.53;10.26;1.92;4.58;2;1;1;427.27;443.34;15.41;1.52;435.46;2.02;0.23;0.11;0.08;1.29;2.03;57.11;0.42;-0.68;-0.26;-0.02;1748.42;487.45;299.92;275.18;14.22;1.47;300.62;14.95;0.33;0.2;0.14