index;name;L-S;smiles;comment;%ee;T;BL32-1;BL1-6;BL6-34;BL5-12;BL12-11;BL33-11;BL11-16;BL16-31;BL6-5;BA32-1-6;BA1-6-34;BA1-6-5;BA6-5-12;BA5-12-11;BA12-11-33;BA5-6-34;BA33-11-16;BA11-16-31;BA12-11-16;DA32-1-6-34;DA32-1-6-5;DA1-6-5-12;DA5-12-11-33;DA12-11-16-31;DA33-11-16-31;DA6-5-12-11;NB32-34;NB33-31;NB1-34;NB33-16;NMR 32;NMR1;NMR6;NMR34;NMR33;NMR11;NMR12;NMR5;NMR16;NMR31;q32;q1;q6;q34;q33;q11;q12;q5;q16;q31;HOMO;LUMO;VF5-12;VF6-34;VF11-33;VF1-32;VF16-31;VI5-12;VI6-34;VI11-33;VI1-32;VI16-31;L1R1;B1R1;B5R1;L1R2;B1R2;B5R2;L1R3;B1R3;B5R3;L1R4;B1R4;B5R4;Area; Vol;PSA; Ovality;MW;dipolemoment;RCx;RCy;RCz;BL12-16S;NMR12-S;NMR16-S;q12-S;q16-S;HOMO-S;LUMO-S;VF12-16S;VI12-16S;Area-S; Vol-S;PSA-S; Ovality-S;MW-S;dipolemoment-S;RCx-S;RCy-S;RCz-S
0;R1;L1-1-S1;c1cc2c(c3c1op(oc1c3c3ccccc3cc1)OC)cccc2.C=C(CC(=O)OC)C(=O)OC.ClCCl;;89.2;24;1.09;1.41;1.41;1.49;1.38;1.38;1.41;1.09;1.38;118.34;116.89;122.54;119.34;118.84;119.29;120.53;118;118.56;122.71;0.16;177.5;176.27;0.83;178.84;0.44;52.98;2.57;2.59;2.38;2.39;23.17;61.47;35.4;144.56;163.01;37.7;59.06;60.05;62.34;23.29;0.28;-0.28;0.32;-0.84;-0.84;0.31;-0.08;-0.08;-0.28;0.28;-0.25;-0.02;1522.16;1246.69;1276.42;3234.76;3229.96;80.81;140.03;193.47;2.8;2.64;2;1;1;5.98;1.54;3.76;5.86;1.35;3.87;2;1;1;329.34;337.38;22.35;1.41;346.32;3.19;0.27;0.23;0.14;1.33;49.8;52.44;-0.15;-0.36;-0.33;0;1749.08;25.91;191.37;161.86;39.51;1.33;158.15;1.4;3.49;0.46;0.42
1;R2;L1-2-S1;c1cc2c(c3c1op(oc1c3c3ccccc3cc1)OC(C)C)cccc2.C=C(CC(=O)OC)C(=O)OC.ClCCl;;97.6;24;1.09;1.41;1.38;1.49;1.38;1.38;1.41;1.09;1.38;118.37;117.01;122.63;119.16;118.76;119.34;120.33;117.97;118.51;122.68;1.19;177.2;177.13;0.37;178.8;0.17;52.97;2.57;2.59;2.38;2.39;23.24;61.75;35.45;139.68;159.85;37.25;58.77;0.12;62.2;23.31;0.28;-0.28;0.32;-0.83;-0.84;0.31;-0.08;-0.08;-0.28;0.28;-0.25;-0.02;1523.44;1251.73;1279.56;3232.85;3229.84;89.89;130.68;163.93;1.46;2.7;2;1;1;4.86;1.35;5.88;4.31;1.35;6.33;2;1;1;367.38;374.12;21.11;1.46;374.38;3.27;0.25;0.18;0.12;1.33;49.8;52.44;-0.15;-0.36;-0.33;0;1749.08;25.91;191.37;161.86;39.51;1.33;158.15;1.4;3.49;0.46;0.42
2;R3;L1-3-S1;c1cc2c(c3c1op(oc1c3c3ccccc3cc1)Oc1ccccc1)cccc2.C=C(CC(=O)OC)C(=O)OC.ClCCl;;96.6;24;1.08;1.41;1.38;1.49;1.38;1.38;1.41;1.08;1.38;118.55;117.15;122.94;119.26;118.82;119.17;119.9;117.98;118.65;122.83;0.34;178.65;177.88;0.56;178.64;0.02;53.58;2.58;2.59;2.39;2.4;23.16;60.95;37.27;142.47;156.29;38.08;59.04;8.07;62.84;23.55;0.28;-0.28;0.31;-0.83;-0.83;0.31;-0.08;-0.08;-0.28;0.28;-0.26;-0.02;1524.44;1245.98;1281.35;3232.85;3229.84;87.01;151.66;167.21;1.46;2.7;2;1;1;7.07;1.88;5.18;5.1;1.35;8.17;2;1;1;389.73;403.09;20.82;1.48;408.39;2.97;0.22;0.13;0.11;1.33;49.8;52.44;-0.15;-0.36;-0.33;0;1749.08;25.91;191.37;161.86;39.51;1.33;158.15;1.4;3.49;0.46;0.42
3;R4;L1-4-S1;c1cc2c(c3c1op(oc1c3c3ccccc3cc1)Oc1ccccc1Br)cccc2.C=C(CC(=O)OC)C(=O)OC.ClCCl;;89.8;24;1.09;1.41;1.38;1.49;1.38;1.39;1.41;1.09;1.38;118.63;118.37;122.98;119.06;120;120.83;118.65;116.35;118.52;122.74;0.71;178.97;178.45;2.9;176.95;0.16;54.04;2.6;2.56;2.4;2.38;23.22;62.45;39.34;142.99;157.14;37.01;59.07;7.96;60.37;25.33;0.28;-0.28;0.3;-0.82;-0.84;0.32;-0.08;-0.08;-0.28;0.27;-0.25;-0.02;1524.52;1266.49;1242.94;3236.59;3232.51;102.59;406.49;96.26;1.87;2.33;2;1;1;4.15;1.35;6.69;8.63;1.35;5.16;2;1;1;402.6;419.38;22.63;1.49;487.29;2.84;0.22;0.11;0.09;1.33;49.8;52.44;-0.15;-0.36;-0.33;0;1749.08;25.91;191.37;161.86;39.51;1.33;158.15;1.4;3.49;0.46;0.42
4;R5;L1-5-S1;c1cc2c(c3c1op(oc1c3c3ccccc3cc1)O[C@H](c1ccccc1)C)cccc2.C=C(CC(=O)OC)C(=O)OC.ClCCl;;99.2;24;1.09;1.41;1.38;1.49;1.38;1.38;1.41;1.08;1.38;118.56;118.02;122.68;118.87;119.22;119.89;119.29;117.31;118.48;122.79;0.01;178.67;178.06;0.57;178.67;0.11;53.4;2.59;2.58;2.4;2.39;23.26;62.43;37.75;161.04;140.74;36.19;58.47;8.41;60.11;23.17;0.28;-0.28;0.31;-0.84;-0.83;0.32;-0.08;-0.08;-0.28;0.28;-0.25;-0.02;1524.23;1250.49;1278.61;3226.68;3228.64;88.55;138.35;239.02;2.95;7.76;2;1;1;4;1.35;9.44;10.39;1.7;3.96;2;1;1;428.1;439.74;19.96;1.53;436.45;2.9;0.24;0.09;0.07;1.33;49.8;52.44;-0.15;-0.36;-0.33;0;1749.08;25.91;191.37;161.86;39.51;1.33;158.15;1.4;3.49;0.46;0.42
5;R6;L1-6-S1;c1cc2c(c3c1op(oc1c3c3ccccc3cc1)O[C@@H](c1ccccc1)C)cccc2.C=C(CC(=O)OC)C(=O)OC.ClCCl;;98.2;24;1.08;1.41;1.38;1.49;1.38;1.39;1.41;1.08;1.38;118.47;118;122.6;118.92;119.38;119.89;119.38;117.13;118.47;122.99;0.51;178.84;178.87;2.96;178.27;1.62;54.06;2.59;2.58;2.39;2.39;23.66;62.64;37.64;152.07;155.76;36;57.77;9.51;59.49;23.09;0.27;-0.28;0.32;-0.84;-0.83;0.32;-0.08;-0.08;-0.28;0.28;-0.25;-0.02;1522.94;1277.04;1244.84;3231.66;3235.26;84.81;183.41;120.07;5.45;2.54;2;1;1;5.08;1.35;7.92;7.28;1.66;6.51;2;1;1;418.63;438.85;19.14;1.5;436.45;1.81;0.08;0.13;0.08;1.33;49.8;52.44;-0.15;-0.36;-0.33;0;1749.08;25.91;191.37;161.86;39.51;1.33;158.15;1.4;3.49;0.46;0.42
6;R7;L1-1-S2;c1cc2c(c3c1op(oc1c3c3ccccc3cc1)OC)cccc2.C=C(NC(=O)C)C(=O)OC.ClCCl;;72.8;24;1.09;1.41;1.41;1.49;1.38;1.38;1.41;1.09;1.38;118.34;116.89;122.54;119.34;118.84;119.29;120.53;118;118.56;122.71;0.16;177.5;176.27;0.83;178.84;0.44;52.98;2.57;2.59;2.38;2.39;23.17;61.47;35.4;144.56;163.01;37.7;59.06;60.05;62.34;23.29;0.28;-0.28;0.32;-0.84;-0.84;0.31;-0.08;-0.08;-0.28;0.28;-0.25;-0.02;1522.16;1246.69;1276.42;3234.76;3229.96;80.81;140.03;193.47;2.8;2.64;2;1;1;5.98;1.54;3.76;5.86;1.35;3.87;2;1;1;329.34;337.38;22.35;1.41;346.32;3.19;0.27;0.23;0.14;1.34;53.58;79.9;0.03;-0.44;-0.29;0;1740.59;88.62;175.48;146.85;41.41;1.3;143.14;3.49;3.39;0.69;0.58
7;R8;L1-2-S2;c1cc2c(c3c1op(oc1c3c3ccccc3cc1)OC(C)C)cccc2.C=C(NC(=O)C)C(=O)OC.ClCCl;;94.8;24;1.09;1.41;1.38;1.49;1.38;1.38;1.41;1.09;1.38;118.37;117.01;122.63;119.16;118.76;119.34;120.33;117.97;118.51;122.68;1.19;177.2;177.13;0.37;178.8;0.17;52.97;2.57;2.59;2.38;2.39;23.24;61.75;35.45;139.68;159.85;37.25;58.77;0.12;62.2;23.31;0.28;-0.28;0.32;-0.83;-0.84;0.31;-0.08;-0.08;-0.28;0.28;-0.25;-0.02;1523.44;1251.73;1279.56;3232.85;3229.84;89.89;130.68;163.93;1.46;2.7;2;1;1;4.86;1.35;5.88;4.31;1.35;6.33;2;1;1;367.38;374.12;21.11;1.46;374.38;3.27;0.25;0.18;0.12;1.34;53.58;79.9;0.03;-0.44;-0.29;0;1740.59;88.62;175.48;146.85;41.41;1.3;143.14;3.49;3.39;0.69;0.58
8;R9;L1-3-S2;c1cc2c(c3c1op(oc1c3c3ccccc3cc1)Oc1ccccc1)cccc2.C=C(NC(=O)C)C(=O)OC.ClCCl;;80.6;24;1.08;1.41;1.38;1.49;1.38;1.38;1.41;1.08;1.38;118.55;117.15;122.94;119.26;118.82;119.17;119.9;117.98;118.65;122.83;0.34;178.65;177.88;0.56;178.64;0.02;53.58;2.58;2.59;2.39;2.4;23.16;60.95;37.27;142.47;156.29;38.08;59.04;8.07;62.84;23.55;0.28;-0.28;0.31;-0.83;-0.83;0.31;-0.08;-0.08;-0.28;0.28;-0.26;-0.02;1524.44;1245.98;1281.35;3232.85;3229.84;87.01;151.66;167.21;1.46;2.7;2;1;1;7.07;1.88;5.18;5.1;1.35;8.17;2;1;1;389.73;403.09;20.82;1.48;408.39;2.97;0.22;0.13;0.11;1.34;53.58;79.9;0.03;-0.44;-0.29;0;1740.59;88.62;175.48;146.85;41.41;1.3;143.14;3.49;3.39;0.69;0.58
9;R10;L1-4-S2;c1cc2c(c3c1op(oc1c3c3ccccc3cc1)Oc1ccccc1Br)cccc2.C=C(NC(=O)C)C(=O)OC.ClCCl;;70;24;1.09;1.41;1.38;1.49;1.38;1.39;1.41;1.09;1.38;118.63;118.37;122.98;119.06;120;120.83;118.65;116.35;118.52;122.74;0.71;178.97;178.45;2.9;176.95;0.16;54.04;2.6;2.56;2.4;2.38;23.22;62.45;39.34;142.99;157.14;37.01;59.07;7.96;60.37;25.33;0.28;-0.28;0.3;-0.82;-0.84;0.32;-0.08;-0.08;-0.28;0.27;-0.25;-0.02;1524.52;1266.49;1242.94;3236.59;3232.51;102.59;406.49;96.26;1.87;2.33;2;1;1;4.15;1.35;6.69;8.63;1.35;5.16;2;1;1;402.6;419.38;22.63;1.49;487.29;2.84;0.22;0.11;0.09;1.34;53.58;79.9;0.03;-0.44;-0.29;0;1740.59;88.62;175.48;146.85;41.41;1.3;143.14;3.49;3.39;0.69;0.58
10;R11;L1-5-S2;c1cc2c(c3c1op(oc1c3c3ccccc3cc1)O[C@H](c1ccccc1)C)cccc2.C=C(NC(=O)C)C(=O)OC.ClCCl;;95.5;24;1.09;1.41;1.38;1.49;1.38;1.38;1.41;1.08;1.38;118.56;118.02;122.68;118.87;119.22;119.89;119.29;117.31;118.48;122.79;0.01;178.67;178.06;0.57;178.67;0.11;53.4;2.59;2.58;2.4;2.39;23.26;62.43;37.75;161.04;140.74;36.19;58.47;8.41;60.11;23.17;0.28;-0.28;0.31;-0.84;-0.83;0.32;-0.08;-0.08;-0.28;0.28;-0.25;-0.02;1524.23;1250.49;1278.61;3226.68;3228.64;88.55;138.35;239.02;2.95;7.76;2;1;1;4;1.35;9.44;10.39;1.7;3.96;2;1;1;428.1;439.74;19.96;1.53;436.45;2.9;0.24;0.09;0.07;1.34;53.58;79.9;0.03;-0.44;-0.29;0;1740.59;88.62;175.48;146.85;41.41;1.3;143.14;3.49;3.39;0.69;0.58
11;R12;L1-6-S2;c1cc2c(c3c1op(oc1c3c3ccccc3cc1)O[C@@H](c1ccccc1)C)cccc2.C=C(NC(=O)C)C(=O)OC.ClCCl;;93.3;24;1.09;1.41;1.38;1.49;1.38;1.38;1.41;1.09;1.38;118.51;116.98;122.82;119.1;118.74;119.48;120.19;117.79;118.55;122.73;0.18;178.77;178.18;0.23;178.79;0.02;52.68;2.57;2.59;2.38;2.39;24.18;61.25;35.95;140.38;161.51;37.09;58.85;0.3;62.23;23.21;0.28;-0.28;0.32;-0.83;-0.84;0.31;-0.08;-0.08;-0.28;0.28;-0.25;-0.02;1521.65;1246.64;1276.1;3225.14;3211.38;84.21;145.66;212.34;2.91;2.64;2;1;1;4.77;1.35;9.04;5.45;1.35;8.08;2;1;1;425.38;439.15;20.6;1.52;436.45;3.15;0.24;0.1;0.08;1.34;53.58;79.9;0.03;-0.44;-0.29;0;1740.59;88.62;175.48;146.85;41.41;1.3;143.14;3.49;3.39;0.69;0.58
12;R13;L1-1-S3;c1cc2c(c3c1op(oc1c3c3ccccc3cc1)OC)cccc2.C(=C)(c1ccccc1)NC(=O)C.ClCCl;;76;30;1.09;1.41;1.38;1.49;1.38;1.38;1.41;1.08;1.38;118.49;118.13;122.59;118.57;119.32;120.78;119.27;117.08;118.37;122.08;0.06;178.78;178.3;1.39;176.71;0.51;52.7;2.59;2.57;2.39;2.38;23.29;62.28;35.8;162.16;151.78;36.19;60.96;58.97;60.24;23.76;0.27;-0.28;0.32;-0.83;-0.83;0.32;-0.09;-0.08;-0.28;0.27;-0.25;-0.02;1522.69;1279.47;1252.94;3229.41;3243.51;100.07;233.63;101.09;5.97;2.72;2;1;1;5.03;1.35;7.53;10.26;1.92;4.58;2;1;1;427.27;443.34;15.41;1.52;435.46;2.02;0.23;0.11;0.08;1.29;2.84;66.48;0.42;-0.68;-0.26;-0.01;1738.3;524.43;277.7;256.73;22.36;1.42;247.72;14.19;0.61;0.28;0.22
13;R14;L1-2-S3;c1cc2c(c3c1op(oc1c3c3ccccc3cc1)OC(C)C)cccc2.C(=C)(c1ccccc1)NC(=O)C.ClCCl;;89.4;30;1.49;1.43;1.38;1.49;1.38;1.37;1.43;1.49;1.38;121.64;119.57;121.48;120.92;119.99;122.68;118.95;116.13;121.88;121.12;3.35;176.31;175;8.63;176.92;6.05;73.41;2.89;2.83;2.42;2.38;44.37;43.26;30.61;226.56;227.11;36;59.5;58.26;44.36;44;-0.06;-0.08;0.36;-0.81;-0.81;0.37;-0.08;-0.08;-0.07;-0.05;-0.25;-0.02;1050.7;1273.16;1284.9;1214.49;1214.49;52.69;216.25;200.12;67.36;67.36;6.33;1.62;4.37;7.48;1.52;6.53;7.48;1.52;6.53;6.33;1.62;4.37;822.27;916.63;6.46;1.8;862.99;0.94;0.05;0.04;0.03;1.34;84.04;38.68;-0.48;0.15;-0.27;0.01;1736.36;157.22;203.2;182.46;23.73;1.31;161.2;4.14;1.7;0.65;0.54
14;R15;L1-7-S3;c1cc2c(c3c1op(oc1c3c3ccccc3cc1)OC1CCCC1)cccc2.C(=C)(c1ccccc1)NC(=O)C.ClCCl;;93.7;30;1.09;1.41;1.38;1.49;1.38;1.39;1.41;1.08;1.38;118.46;118.1;122.56;118.71;119.33;119.99;119.34;117.06;118.48;122.91;0.4;178.54;177.32;1.14;178.89;1.15;52.76;2.59;2.57;2.39;2.39;23.36;62.27;37.43;149.46;158.84;36.2;59.73;8.65;61.14;23.25;0.27;-0.28;0.31;-0.84;-0.83;0.32;-0.08;-0.08;-0.27;0.28;-0.25;-0.02;1523.02;1275.69;1247.14;3235.88;3234.4;79.29;202.64;119.74;3.12;2.8;2;1;1;8.9;1.35;6.62;9.03;1.35;5.92;2;1;1;431.56;429.21;21.93;1.57;416.46;1.55;0.24;0.09;0.08;1.34;42.65;89.35;0.15;-0.5;-0.27;0.01;1733.89;52.63;203.37;182.54;21.95;1.31;161.2;5.17;2.3;0.5;0.43
15;R16;L1-8-S3;c1cc2c(c3c1op(oc1c3c3ccccc3cc1)OCc1ccccc1)cccc2.C(=C)(c1ccccc1)NC(=O)C.ClCCl;;94.2;30;1.49;1.42;1.38;1.49;1.38;1.36;1.44;1.49;1.38;119.89;118.54;121.95;120.07;121.24;125.48;119.5;113.38;122.01;121.13;4.04;177.26;175.54;4.4;173.73;7.56;88.45;2.83;2.78;2.41;2.34;42.83;43.89;28.03;233.67;212.14;36.2;66.33;58.15;50.27;44.48;-0.06;-0.08;0.36;-0.81;-0.8;0.38;-0.11;-0.09;-0.07;-0.06;-0.25;-0.01;1111.83;1280.38;1280.38;1332.87;1332.87;14.73;156.21;156.21;26.89;26.89;6.36;1.5;3.15;7.48;1.52;6.53;7.48;1.52;6.53;6.36;1.5;3.15;763.3;846.47;6.88;1.76;806.88;1.34;0.06;0.04;0.04;1.34;82.8;39.02;-0.48;0.15;-0.26;-0.01;1733.48;165.36;282.66;265.79;23.82;1.41;237.3;4.15;1.11;0.18;0.17
16;R17;L1-9-S3;c1cc2c(c3c1op(oc1c3c3ccccc3cc1)OCC(C)C)cccc2.C(=C)(c1ccccc1)NC(=O)C.ClCCl;;93.1;30;1.09;1.41;1.38;1.49;1.38;1.38;1.41;1.09;1.38;118.51;118.02;122.63;118.38;118.95;119.88;119.33;117.35;118.59;122.75;0.14;178.69;177.79;1.21;178.94;0.63;52.35;2.59;2.58;2.39;2.39;23.31;62.34;37.5;151.47;149.26;36.67;59.33;8.48;61.2;23.26;0.27;-0.28;0.31;-0.83;-0.83;0.32;-0.08;-0.08;-0.27;0.27;-0.25;-0.02;1521.54;1277.51;1249.12;3228.44;3237.58;88.9;182.93;118.04;3.17;3.34;2;1;1;5.26;1.35;6.98;7.24;1.35;6.34;2;1;1;393.55;392.95;22.61;1.52;388.4;1.19;0.26;0.13;0.1;1.34;42.65;89.35;0.15;-0.5;-0.27;0.01;1733.89;52.63;203.37;182.54;21.95;1.31;161.2;5.17;2.3;0.5;0.43
17;R18;L1-10-S3;c1cc2c(c3c1op(oc1c3c3ccccc3cc1)OCC(CC)CC)cccc2.C(=C)(c1ccccc1)NC(=O)C.ClCCl;;93.7;30;1.09;1.41;1.38;1.49;1.38;1.39;1.41;1.08;1.38;118.49;118.18;122.55;118.52;119.07;119.98;119.26;117.08;118.47;122.91;0.28;178.8;178.36;0.87;179.08;0.84;52.63;2.6;2.58;2.4;2.39;23.37;62.17;37.37;146.71;158.71;36.44;59.43;8.47;60.9;23.22;0.27;-0.28;0.31;-0.84;-0.83;0.32;-0.08;-0.08;-0.27;0.28;-0.25;-0.02;1522.17;1276.24;1246.4;3229.32;3231.65;85.48;185.77;118.34;2.99;4.03;2;1;1;7.84;1.35;6.69;8.04;1.35;5.25;2;1;1;397.17;400.06;22.46;1.51;400.41;1.59;0.24;0.12;0.09;1.34;42.65;89.35;0.15;-0.5;-0.27;0.01;1733.89;52.63;203.37;182.54;21.95;1.31;161.2;5.17;2.3;0.5;0.43
18;R19;L1-11-S3;c1cc2c(c3c1op(oc1c3c3ccccc3cc1)OCC(C)(C)C)cccc2.C(=C)(c1ccccc1)NC(=O)C.ClCCl;;95.3;30;1.09;1.41;1.38;1.49;1.38;1.38;1.41;1.09;1.38;118.51;118.05;122.66;118.49;119.08;120.12;119.27;117.17;118.55;122.67;0.13;178.63;177.91;0.37;177.75;0.01;52.5;2.59;2.58;2.39;2.39;23.29;62.32;37.53;151.32;149.31;36.7;59.44;8.68;61.25;23.11;0.27;-0.28;0.31;-0.83;-0.83;0.32;-0.08;-0.08;-0.28;0.27;-0.25;-0.02;1522.29;1278.2;1248.94;3228.63;3224.95;94.95;171.4;119.27;2.72;3.85;2;1;1;8.46;1.79;4.22;7.93;1.35;6.29;2;1;1;410.25;410.6;22.42;1.54;402.43;0.95;0.25;0.12;0.09;1.34;42.65;89.35;0.15;-0.5;-0.27;0.01;1733.89;52.63;203.37;182.54;21.95;1.31;161.2;5.17;2.3;0.5;0.43
19;R20;L1-12-S3;c1cc2c(c3c1op(oc1c3c3ccccc3cc1)O[C@H](CC)C)cccc2.C(=C)(c1ccccc1)NC(=O)C.ClCCl;;92;30;1.89;1.42;1.39;1.49;1.38;1.39;1.42;1.89;1.38;121.47;116.67;124.23;120.61;120.76;118.79;118.9;116.84;121.35;126.32;5.21;169.6;169.69;2.54;168.55;6.88;55.11;3.06;3.06;2.39;2.39;400.09;53.2;35.15;172.22;168.95;32.68;61.85;62.51;55.18;402.59;1.89;-0.55;0.34;-0.83;-0.83;0.34;-0.08;-0.08;-0.55;1.89;-0.26;-0.02;1500.07;1277.65;1277.65;787.23;787.23;52.93;94.94;94.94;28.57;28.57;6.38;4.21;6.49;5.23;1.35;3.89;4.92;1.35;3.98;6.38;4.21;6.49;822.06;885.7;40.55;1.84;865.09;3.54;0.06;0.03;0.03;1.27;8.04;-111.79;0.28;-0.62;-0.28;-0.05;1746.88;166.88;252.53;234.46;76.19;1.37;242.23;2.86;0.7;0.27;0.22
20;R21;L1-13-S3;c1cc2c(c3c1op(oc1c3c3ccccc3cc1)O[C@H](CC)C)cccc2.C(=C)(c1ccccc1)NC(=O)C.ClCCl;;94.1;30;1.08;1.42;1.38;1.49;1.38;1.38;1.41;1.09;1.38;118.24;116.39;122.09;119.72;119.02;119.1;121.43;118.12;118.5;122.77;1.82;174.58;172.85;0.71;178.93;0.76;53.26;2.56;2.6;2.37;2.4;23.3;60.96;35.25;144.54;148.47;37.98;58.69;0.09;62.07;23.38;0.28;-0.29;0.33;-0.84;-0.83;0.31;-0.08;-0.09;-0.28;0.28;-0.25;-0.02;1525.6;1253.13;1278.66;3247.6;3232.28;86.69;134.12;189.22;2.22;4.14;2;1;1;6.8;1.35;4.84;4.48;1.35;6.14;2;1;1;382.79;391.99;20.42;1.48;388.4;3.08;0.24;0.16;0.11;1.34;42.65;89.35;0.15;-0.5;-0.27;0.01;1733.89;52.63;203.37;182.54;21.95;1.31;161.2;5.17;2.3;0.5;0.43
21;R22;L1-14-S3;c1cc2c(c3c1op(oc1c3c3ccccc3cc1)O[C@@H](C)c1ccccc1)cccc2.C(=C)(c1ccccc1)NC(=O)C.ClCCl;;94.9;30;1.36;1.44;1.86;1.5;1.39;1.86;1.44;1.35;1.38;114.13;111.8;118.38;124.02;120.42;116.1;129.59;125.3;115.5;118.61;3.72;171.31;173.48;8.05;173.37;6.48;93.27;2.73;3.11;2.74;2.94;178.03;32.26;50.07;377.81;390.68;52.06;34.73;39.54;31.11;181.73;-0.57;0.34;-0.36;0.91;0.9;-0.36;0;-0.03;0.34;-0.57;-0.25;-0.02;1093.23;1230.97;1265.86;1230.97;1265.86;13.44;137.29;165.64;129.78;165.64;5.15;1.35;4.16;7.12;2.38;5.84;7.12;2.38;5.84;5.15;1.35;4.16;716.44;788.04;5.8;1.74;738.85;3.63;0.07;0.05;0.04;1.33;61.66;47.91;-0.38;0;-0.31;-0.01;1738.29;229.01;150.24;125.17;46.99;1.24;129.12;10.36;3.09;1.18;0.88
22;R23;L1-15-S3;c1cc2c(c3c1op(oc1c3c3ccccc3cc1)OCCOC)cccc2.C(=C)(c1ccccc1)NC(=O)C.ClCCl;;86;30;1.49;1.42;1.39;1.49;1.38;1.39;1.42;1.49;1.38;120.97;117.08;123.7;119.14;119.14;119.12;119.2;117.17;120.62;130.11;0.18;178.96;177.07;0.54;177.47;2.42;53.07;2.82;2.81;2.4;2.4;48.03;47.19;40.9;183.65;177.79;39.67;60.95;61;47.95;46.64;-0.03;-0.08;0.33;-0.82;-0.83;0.33;-0.07;-0.07;-0.08;-0.03;-0.25;-0.03;1506.25;1280.54;1280.54;1516.58;1516.58;23.3;60.06;60.06;10.89;10.89;8.46;1.52;5.63;5.23;1.35;3.89;4.92;1.35;3.98;8.46;1.52;5.63;654.45;693.04;50.89;1.73;700.73;3.36;0.07;0.04;0.03;1.34;55.64;54.71;-0.23;-0.02;-0.23;0.01;1769;37.93;266.96;248.17;17.9;1.4;282.18;3.49;0.83;0.22;0.19
23;R24;L1-16-S3;c1cc2c(c3c1op(oc1c3c3ccccc3cc1)OCCCl)cccc2.C(=C)(c1ccccc1)NC(=O)C.ClCCl;;92.7;30;1.09;1.41;1.38;1.49;1.38;1.38;1.41;1.08;1.38;118.44;117.08;122.8;119.41;118.85;119.43;120.12;117.75;118.62;122.81;0.57;178.52;178.36;1.18;178.64;0.16;53.02;2.57;2.59;2.39;2.39;23.29;62.18;36.45;140.96;164;37.9;59.17;0.06;62.64;23.34;0.28;-0.28;0.31;-0.83;-0.84;0.31;-0.08;-0.08;-0.28;0.28;-0.26;-0.02;1522.86;1248.57;1276.28;3230.15;3225.97;82.68;124.92;212.82;1.73;2.49;2;1;1;6.39;1.52;4.95;4.03;1.35;7.29;2;1;1;365.23;369.76;21.3;1.47;394.79;2.17;0.23;0.15;0.11;1.34;42.65;89.35;0.15;-0.5;-0.27;0.01;1733.89;52.63;203.37;182.54;21.95;1.31;161.2;5.17;2.3;0.5;0.43
24;R25;L1-14-S4;c1cc2c(c3c1op(oc1c3c3ccccc3cc1)O[C@@H](C)c1ccccc1)cccc2.C(=C)(c1ccc(cc1)Cl)NC(=O)C.ClCCl;;95.8;30;1.09;1.41;1.38;1.49;1.38;1.38;1.41;1.09;1.38;118.41;116.44;122.46;120.07;119.36;118.82;120.98;118.25;118.56;122.93;0.01;175.98;171.73;0.4;178.82;0.29;53.94;2.56;2.6;2.38;2.4;24.17;60.41;37.27;156.22;145.93;38.48;58.37;0.91;62.23;23.19;0.27;-0.27;0.33;-0.84;-0.83;0.31;-0.08;-0.08;-0.28;0.28;-0.25;-0.02;1522.83;1243.98;1277.75;3226.17;3229.65;87.56;25.47;159.85;6.24;3.46;2;1;1;7.43;1.35;7.03;5.43;1.35;6.27;2;1;1;416.63;438.08;21.3;1.49;436.45;2.07;0.22;0.12;0.09;1.34;43.73;88.15;0.14;-0.5;-0.27;0;1734.3;55.81;219.01;196.15;22;1.34;195.65;3.64;2.12;0.28;0.25
25;R26;L1-8-S5;c1cc2c(c3c1op(oc1c3c3ccccc3cc1)OCc1ccccc1)cccc2.C(=C)(c1cc2c(cc1)cccc2)NC(=O)C.ClCCl;;94.3;30;1.08;1.41;1.38;1.49;1.38;1.39;1.41;1.08;1.38;118.51;118.19;122.63;118.64;119.36;119.99;119.17;117.01;118.54;122.97;0.42;178.74;177.72;0.8;178.81;0.85;52.99;2.6;2.58;2.4;2.39;23.29;62.34;37.69;148.9;159.35;36.33;59.72;8.49;61.26;23.19;0.27;-0.28;0.31;-0.84;-0.83;0.32;-0.08;-0.08;-0.27;0.28;-0.25;-0.02;1524.13;1278.68;1248.65;3235.85;3252.78;86.87;208.5;117.51;5.32;2.62;2;1;1;9.92;1.35;5.86;9.91;1.35;5.23;2;1;1;418.32;422.2;22.09;1.54;422.42;1.34;0.25;0.09;0.07;1.34;42.3;87.39;0.15;-0.5;-0.26;-0.01;1734.78;47.04;250.47;233.86;22.08;1.36;211.26;5.17;1.68;0.24;0.21
26;R27;L1-9-S5;c1cc2c(c3c1op(oc1c3c3ccccc3cc1)OCC(C)C)cccc2.C(=C)(c1cc2c(cc1)cccc2)NC(=O)C.ClCCl;;92;30;1.36;1.44;1.86;1.5;1.38;1.87;1.43;1.36;1.38;114.24;111.26;118.21;122.98;122.34;115.46;130.2;126.08;115.76;118.46;6.96;178.9;176.26;0.06;176.18;4.25;89.12;2.73;3.14;2.74;2.95;203.98;29.79;57.59;378.16;391.78;51.16;41.18;38.85;29.62;203.49;-0.55;0.34;-0.36;0.91;0.89;-0.35;-0.01;-0.02;0.34;-0.56;-0.25;-0.02;1188.06;1188.06;1177.78;1260.66;1252.32;4.41;4.41;16.54;226.21;180.04;7.27;1.35;5.31;7.12;2.38;5.84;7.12;2.38;5.84;7.27;1.35;5.31;787;881;7.2;1.77;834.94;3.86;0.06;0.03;0.03;1.33;61.66;47.91;-0.38;0;-0.31;-0.01;1738.29;229.01;150.24;125.17;46.99;1.24;129.12;10.36;3.09;1.18;0.88
27;R28;L1-10-S5;c1cc2c(c3c1op(oc1c3c3ccccc3cc1)OCC(CC)CC)cccc2.C(=C)(c1cc2c(cc1)cccc2)NC(=O)C.ClCCl;;93;30;1.89;1.42;1.39;1.49;1.38;1.39;1.42;1.89;1.38;121.47;116.67;124.23;120.61;120.76;118.79;118.9;116.84;121.35;126.32;5.21;169.6;169.69;2.54;168.55;6.88;55.11;3.06;3.06;2.39;2.39;400.09;53.2;35.15;172.22;168.95;32.68;61.85;62.51;55.18;402.59;1.89;-0.55;0.34;-0.83;-0.83;0.34;-0.08;-0.08;-0.55;1.89;-0.26;-0.02;1500.07;1277.65;1277.65;787.23;787.23;52.93;94.94;94.94;28.57;28.57;6.38;4.21;6.49;5.23;1.35;3.89;4.92;1.35;3.98;6.38;4.21;6.49;822.06;885.7;40.55;1.84;865.09;3.54;0.06;0.03;0.03;1.28;7.77;-99.24;0.28;-0.63;-0.27;0;1745.88;155.16;317.74;305.35;44.13;1.45;289.33;1.59;0.95;0.11;0.1