index;name;L-S;smiles;comment;%ee;T;BL32-1;BL1-6;BL6-34;BL5-12;BL12-11;BL33-11;BL11-16;BL16-31;BL6-5;BA32-1-6;BA1-6-34;BA1-6-5;BA6-5-12;BA5-12-11;BA12-11-33;BA5-6-34;BA33-11-16;BA11-16-31;BA12-11-16;DA32-1-6-34;DA32-1-6-5;DA1-6-5-12;DA5-12-11-33;DA12-11-16-31;DA33-11-16-31;DA6-5-12-11;NB32-34;NB33-31;NB1-34;NB33-16;NMR 32;NMR1;NMR6;NMR34;NMR33;NMR11;NMR12;NMR5;NMR16;NMR31;q32;q1;q6;q34;q33;q11;q12;q5;q16;q31;HOMO;LUMO;VF5-12;VF6-34;VF11-33;VF1-32;VF16-31;VI5-12;VI6-34;VI11-33;VI1-32;VI16-31;L1R1;B1R1;B5R1;L1R2;B1R2;B5R2;L1R3;B1R3;B5R3;L1R4;B1R4;B5R4;Area; Vol;PSA; Ovality;MW;dipolemoment;RCx;RCy;RCz;BL12-16S;NMR12-S;NMR16-S;q12-S;q16-S;HOMO-S;LUMO-S;VF12-16S;VI12-16S;Area-S; Vol-S;PSA-S; Ovality-S;MW-S;dipolemoment-S;RCx-S;RCy-S;RCz-S
291;R319;L5-8-S159;c1(cc2c(c3-c4c(c(cc5c4cccc5)c4cc(cc(c4)C(F)(F)F)C(F)(F)F)OP(=O)(Oc13)O)cccc2)c1cc(cc(c1)C(F)(F)F)C(F)(F)F.C(=N\c1ccc(cc1)OC)(/c1cccc(c1)Br)\C.c1ccccc1;;72;60;1.49;1.42;1.39;1.49;1.38;1.39;1.42;1.48;1.38;121.93;117.47;123.09;119.72;119.58;118.61;119.25;117.59;121.38;126.3;1.05;173.83;171.62;0.2;178.73;0.54;53.75;2.85;2.84;2.41;2.4;43.04;49.8;42.68;184.33;185.61;42.3;59.67;60.7;51.16;43.08;-0.04;-0.08;0.33;-0.83;-0.83;0.33;-0.06;-0.07;-0.08;-0.04;-0.27;-0.04;1567.85;1227.36;1238.23;1505.24;1505.24;30.37;20.67;68.24;27.67;27.67;6.96;2.28;4.9;5.23;1.35;3.89;4.92;1.35;3.98;6.96;2.28;4.9;614.42;616.41;49.73;1.75;772.48;8.36;0.06;0.03;0.03;1.28;17.82;-120.77;0.33;-0.47;-0.26;-0.01;1767.66;306.95;240.71;226.06;5.83;1.34;195.26;2.12;2;0.27;0.25
292;R320;L5-8-S160;c1(cc2c(c3-c4c(c(cc5c4cccc5)c4cc(cc(c4)C(F)(F)F)C(F)(F)F)OP(=O)(Oc13)O)cccc2)c1cc(cc(c1)C(F)(F)F)C(F)(F)F.C(=N\c1ccc(cc1)OC)(/c1ccccc1C(F)(F)F)\C.c1ccccc1;;82;60;1.49;1.42;1.39;1.49;1.38;1.39;1.42;1.49;1.38;120.86;117.06;123.82;119.44;119.04;119.12;119.1;116.92;120.41;129.28;0.97;179.06;178.76;1.36;177.86;0.81;52.73;2.82;2.8;2.4;2.39;51.23;50.49;40.22;186.32;180.2;38.97;60.97;60.86;50.91;51.29;-0.01;-0.09;0.33;-0.83;-0.83;0.33;-0.07;-0.07;-0.09;-0.01;-0.24;-0.04;1502.9;1270.53;1270.53;1514.33;1514.33;59.76;167.86;167.86;8.78;8.78;6.4;1.53;5.61;5.23;1.35;3.89;4.92;1.35;3.98;6.4;1.53;5.61;651.07;693.02;49.99;1.72;700.73;4.36;0.07;0.04;0.04;1.34;32.42;68.05;-0.05;-0.43;-0.25;0.01;1723.1;49.74;262.83;248.27;24.63;1.38;226.28;3.84;1.1;0.25;0.23
293;R327;L5-10-S154;c1(cc2c(c3-c4c(c(cc5c4cccc5)c4c(cc(cc4C(C)C)C(C)C)C(C)C)OP(=O)(Oc13)O)cccc2)c1c(cc(cc1C(C)C)C(C)C)C(C)C.C(=N\c1ccc(cc1)OC)(/c1ccccc1F)\C.c1(ccccc1)C;;85;35;1.09;1.43;1.85;1.5;1.39;1.86;1.42;1.09;1.39;119.37;116.92;118.89;121.57;120;117.79;123.01;122.67;119.54;119.51;8.88;176.85;173.4;2.68;179.27;2.68;79.94;2.89;3.03;2.8;2.89;22.91;32.27;21.11;279.74;297.99;19.05;17.47;20.3;34.65;23.92;0.27;-0.25;-0.33;0.9;0.91;-0.33;-0.02;-0.04;-0.25;0.27;-0.25;-0.02;1228.08;1197.56;1173.07;3219.05;3224.22;0.88;1.52;1.48;13.64;3.74;2;1;1;7.12;2.38;5.84;7.12;2.38;5.84;2;1;1;597.92;662.43;0;1.63;622.69;3.09;0.09;0.06;0.06;1.34;20.77;65.87;0.06;-0.39;-0.29;-0.01;1730.91;69.3;193.3;176.21;31.16;1.27;162.19;7.71;1.5;0.7;0.55
294;R328;L5-10-S161;c1(cc2c(c3-c4c(c(cc5c4cccc5)c4c(cc(cc4C(C)C)C(C)C)C(C)C)OP(=O)(Oc13)O)cccc2)c1c(cc(cc1C(C)C)C(C)C)C(C)C.C(=N\c1ccc(cc1)OC)(/c1ccccc1OC)\C.c1(ccccc1)C;;80;35;1.49;1.42;1.39;1.49;1.38;1.39;1.42;1.5;1.38;120.43;116.32;123.86;120.18;119.36;118.87;119.71;116.69;120.16;131.9;7.36;176.48;177.12;1;172.77;8.12;49.8;2.8;2.8;2.39;2.39;51.47;48.52;38.95;184.03;178.96;39.02;61.19;61.49;49.67;51.34;-0.06;-0.07;0.33;-0.83;-0.83;0.33;-0.07;-0.07;-0.07;-0.07;-0.26;-0.03;1503.56;1267.49;1273.27;1536.7;1536.7;34.32;16.35;56.47;12.59;12.59;8.48;3.09;5.68;5.23;1.35;3.89;4.92;1.35;3.98;8.48;3.09;5.68;783.2;811.15;42.5;1.86;752.98;4.13;0.06;0.04;0.03;1.28;14.56;-123.39;0.33;-0.48;-0.24;0;1753.96;295.3;298.01;279.6;17.65;1.44;255.32;2.54;1.05;0.15;0.14
295;R329;L5-10-S155;c1(cc2c(c3-c4c(c(cc5c4cccc5)c4c(cc(cc4C(C)C)C(C)C)C(C)C)OP(=O)(Oc13)O)cccc2)c1c(cc(cc1C(C)C)C(C)C)C(C)C.C(=N\c1ccc(cc1)OC)(/c1ccccc1C)\C.c1(ccccc1)C;;93;35;1.89;1.42;1.39;1.49;1.38;1.39;1.42;1.89;1.38;121.47;116.67;124.23;120.61;120.76;118.79;118.9;116.84;121.35;126.32;5.21;169.6;169.69;2.54;168.55;6.88;55.11;3.06;3.06;2.39;2.39;400.09;53.2;35.15;172.22;168.95;32.68;61.85;62.51;55.18;402.59;1.89;-0.55;0.34;-0.83;-0.83;0.34;-0.08;-0.08;-0.55;1.89;-0.26;-0.02;1500.07;1277.65;1277.65;787.23;787.23;52.93;94.94;94.94;28.57;28.57;6.38;4.21;6.49;5.23;1.35;3.89;4.92;1.35;3.98;6.38;4.21;6.49;822.06;885.7;40.55;1.84;865.09;3.54;0.06;0.03;0.03;1.28;6.22;-103.85;0.28;-0.63;-0.26;0;1747.47;156.71;327.51;315.02;37.64;1.46;287.36;2.55;0.5;0.14;0.12
296;R330;L5-10-S156;c1(cc2c(c3-c4c(c(cc5c4cccc5)c4c(cc(cc4C(C)C)C(C)C)C(C)C)OP(=O)(Oc13)O)cccc2)c1c(cc(cc1C(C)C)C(C)C)C(C)C.C(=N\c1ccc(cc1)OC)(/c1ccc(cc1C)C)\C.c1(ccccc1)C;;92;35;1.09;1.41;1.38;1.49;1.38;1.38;1.41;1.08;1.38;118.49;118.13;122.59;118.57;119.32;120.78;119.27;117.08;118.37;122.08;0.06;178.78;178.3;1.39;176.71;0.51;52.7;2.59;2.57;2.39;2.38;23.29;62.28;35.8;162.16;151.78;36.19;60.96;58.97;60.24;23.76;0.27;-0.28;0.32;-0.83;-0.83;0.32;-0.09;-0.08;-0.28;0.27;-0.25;-0.02;1522.69;1279.47;1252.94;3229.41;3243.51;100.07;233.63;101.09;5.97;2.72;2;1;1;5.03;1.35;7.53;10.26;1.92;4.58;2;1;1;427.27;443.34;15.41;1.52;435.46;2.02;0.23;0.11;0.08;1.29;0.96;56.7;0.42;-0.68;-0.27;-0.06;1746.95;486.86;318.21;293.16;14.75;1.49;334.17;16.05;0.38;0.14;0.12
297;R331;L5-10-S162;c1(cc2c(c3-c4c(c(cc5c4cccc5)c4c(cc(cc4C(C)C)C(C)C)C(C)C)OP(=O)(Oc13)O)cccc2)c1c(cc(cc1C(C)C)C(C)C)C(C)C.C(=N\c1ccc(cc1)OC)(/c1ccc(cc1)C)\C.c1(ccccc1)C;;88;35;1.89;1.42;1.39;1.49;1.38;1.39;1.42;1.89;1.38;121.47;116.67;124.23;120.61;120.76;118.79;118.9;116.84;121.35;126.32;5.21;169.6;169.69;2.54;168.55;6.88;55.11;3.06;3.06;2.39;2.39;400.09;53.2;35.15;172.22;168.95;32.68;61.85;62.51;55.18;402.59;1.89;-0.55;0.34;-0.83;-0.83;0.34;-0.08;-0.08;-0.55;1.89;-0.26;-0.02;1500.07;1277.65;1277.65;787.23;787.23;52.93;94.94;94.94;28.57;28.57;6.38;4.21;6.49;5.23;1.35;3.89;4.92;1.35;3.98;6.38;4.21;6.49;822.06;885.7;40.55;1.84;865.09;3.54;0.06;0.03;0.03;1.28;5.8;-104.84;0.28;-0.63;-0.26;0;1745.31;153.1;247.28;231.41;37.65;1.36;211.26;2.69;0.88;0.36;0.29
298;R332;L5-10-S163;c1(cc2c(c3-c4c(c(cc5c4cccc5)c4c(cc(cc4C(C)C)C(C)C)C(C)C)OP(=O)(Oc13)O)cccc2)c1c(cc(cc1C(C)C)C(C)C)C(C)C.C(=N\c1ccc(cc1)OC)(/c1ccc(cc1)N(=O)=O)\C.c1(ccccc1)C;;80;35;1.49;1.42;1.39;1.49;1.38;1.39;1.42;1.5;1.38;120.43;116.32;123.86;120.18;119.36;118.87;119.71;116.69;120.16;131.9;7.36;176.48;177.12;1;172.77;8.12;49.8;2.8;2.8;2.39;2.39;51.47;48.52;38.95;184.03;178.96;39.02;61.19;61.49;49.67;51.34;-0.06;-0.07;0.33;-0.83;-0.83;0.33;-0.07;-0.07;-0.07;-0.07;-0.26;-0.03;1503.56;1267.49;1273.27;1536.7;1536.7;34.32;16.35;56.47;12.59;12.59;8.48;3.09;5.68;5.23;1.35;3.89;4.92;1.35;3.98;8.48;3.09;5.68;783.2;811.15;42.5;1.86;752.98;4.13;0.06;0.04;0.03;1.28;20.37;-129.72;0.31;-0.46;-0.25;-0.04;1759.99;175.52;290.34;272.41;27.95;1.43;250.3;6.46;1.69;0.12;0.12
299;R333;L5-10-S164;c1(cc2c(c3-c4c(c(cc5c4cccc5)c4c(cc(cc4C(C)C)C(C)C)C(C)C)OP(=O)(Oc13)O)cccc2)c1c(cc(cc1C(C)C)C(C)C)C(C)C.C(=N\c1ccc(cc1)OC)(/c1cc(c(cc1)OC)OC)\C.c1(ccccc1)C;;89;35;1.49;1.42;1.39;1.49;1.38;1.39;1.42;1.5;1.38;120.43;116.32;123.86;120.18;119.36;118.87;119.71;116.69;120.16;131.9;7.36;176.48;177.12;1;172.77;8.12;49.8;2.8;2.8;2.39;2.39;51.47;48.52;38.95;184.03;178.96;39.02;61.19;61.49;49.67;51.34;-0.06;-0.07;0.33;-0.83;-0.83;0.33;-0.07;-0.07;-0.07;-0.07;-0.26;-0.03;1503.56;1267.49;1273.27;1536.7;1536.7;34.32;16.35;56.47;12.59;12.59;8.48;3.09;5.68;5.23;1.35;3.89;4.92;1.35;3.98;8.48;3.09;5.68;783.2;811.15;42.5;1.86;752.98;4.13;0.06;0.04;0.03;1.28;19.02;-108.1;0.33;-0.48;-0.24;0;1756.62;291.39;327.93;306.51;26.12;1.49;285.34;1.79;0.9;0.11;0.1
300;R334;L5-10-S165;c1(cc2c(c3-c4c(c(cc5c4cccc5)c4c(cc(cc4C(C)C)C(C)C)C(C)C)OP(=O)(Oc13)O)cccc2)c1c(cc(cc1C(C)C)C(C)C)C(C)C.C(=N\c1ccc(cc1)OC)(/c1ccc(cc1)C#N)\C.c1(ccccc1)C;;80;35;1.49;1.42;1.39;1.49;1.38;1.39;1.42;1.5;1.38;120.43;116.32;123.86;120.18;119.36;118.87;119.71;116.69;120.16;131.9;7.36;176.48;177.12;1;172.77;8.12;49.8;2.8;2.8;2.39;2.39;51.47;48.52;38.95;184.03;178.96;39.02;61.19;61.49;49.67;51.34;-0.06;-0.07;0.33;-0.83;-0.83;0.33;-0.07;-0.07;-0.07;-0.07;-0.26;-0.03;1503.56;1267.49;1273.27;1536.7;1536.7;34.32;16.35;56.47;12.59;12.59;8.48;3.09;5.68;5.23;1.35;3.89;4.92;1.35;3.98;8.48;3.09;5.68;783.2;811.15;42.5;1.86;752.98;4.13;0.06;0.04;0.03;1.28;20.49;-133.46;0.31;-0.46;-0.25;-0.06;1761.58;77.63;294.66;274.17;51.26;1.44;270.29;6.61;1.49;0.1;0.1
301;R335;L5-10-S149;c1(cc2c(c3-c4c(c(cc5c4cccc5)c4c(cc(cc4C(C)C)C(C)C)C(C)C)OP(=O)(Oc13)O)cccc2)c1c(cc(cc1C(C)C)C(C)C)C(C)C.C(=N\c1ccc(cc1)OC)(/c1cc2ccccc2cc1)\C.c1(ccccc1)C;;84;35;1.49;1.42;1.39;1.49;1.38;1.39;1.42;1.48;1.38;121.93;117.47;123.09;119.72;119.58;118.61;119.25;117.59;121.38;126.3;1.05;173.83;171.62;0.2;178.73;0.54;53.75;2.85;2.84;2.41;2.4;43.04;49.8;42.68;184.33;185.61;42.3;59.67;60.7;51.16;43.08;-0.04;-0.08;0.33;-0.83;-0.83;0.33;-0.06;-0.07;-0.08;-0.04;-0.27;-0.04;1567.85;1227.36;1238.23;1505.24;1505.24;30.37;20.67;68.24;27.67;27.67;6.96;2.28;4.9;5.23;1.35;3.89;4.92;1.35;3.98;6.96;2.28;4.9;614.42;616.41;49.73;1.75;772.48;8.36;0.06;0.03;0.03;1.28;19.46;-122.65;0.32;-0.47;-0.25;-0.01;1758.48;223.43;273.88;257.21;12.75;1.4;243.28;1.62;1.39;0.16;0.15
302;R336;L5-10-S8;c1(cc2c(c3-c4c(c(cc5c4cccc5)c4c(cc(cc4C(C)C)C(C)C)C(C)C)OP(=O)(Oc13)O)cccc2)c1c(cc(cc1C(C)C)C(C)C)C(C)C.C(=N\c1ccc(cc1)OC)(/c1ccccc1)\C.c1(ccccc1)C;;88;35;1.49;1.42;1.39;1.49;1.38;1.39;1.42;1.49;1.38;120.97;117.08;123.7;119.14;119.14;119.12;119.2;117.17;120.62;130.11;0.18;178.96;177.07;0.54;177.47;2.42;53.07;2.82;2.81;2.4;2.4;48.03;47.19;40.9;183.65;177.79;39.67;60.95;61;47.95;46.64;-0.03;-0.08;0.33;-0.82;-0.83;0.33;-0.07;-0.07;-0.08;-0.03;-0.25;-0.03;1506.25;1280.54;1280.54;1516.58;1516.58;23.3;60.06;60.06;10.89;10.89;8.46;1.52;5.63;5.23;1.35;3.89;4.92;1.35;3.98;8.46;1.52;5.63;654.45;693.04;50.89;1.73;700.73;3.36;0.07;0.04;0.03;1.34;55.65;53.99;-0.23;-0.02;-0.22;0.02;1763.59;38.41;275.36;257.23;24.1;1.41;233.31;1.35;0.91;0.29;0.24
303;R337;L5-10-S166;c1(cc2c(c3-c4c(c(cc5c4cccc5)c4c(cc(cc4C(C)C)C(C)C)C(C)C)OP(=O)(Oc13)O)cccc2)c1c(cc(cc1C(C)C)C(C)C)C(C)C.C(=N\c1ccc(cc1)OC)(/C(C)C)\C.c1(ccccc1)C;;90;35;1.49;1.42;1.39;1.49;1.38;1.39;1.42;1.49;1.38;120.97;117.08;123.7;119.14;119.14;119.12;119.2;117.17;120.62;130.11;0.18;178.96;177.07;0.54;177.47;2.42;53.07;2.82;2.81;2.4;2.4;48.03;47.19;40.9;183.65;177.79;39.67;60.95;61;47.95;46.64;-0.03;-0.08;0.33;-0.82;-0.83;0.33;-0.07;-0.07;-0.08;-0.03;-0.25;-0.03;1506.25;1280.54;1280.54;1516.58;1516.58;23.3;60.06;60.06;10.89;10.89;8.46;1.52;5.63;5.23;1.35;3.89;4.92;1.35;3.98;8.46;1.52;5.63;654.45;693.04;50.89;1.73;700.73;3.36;0.07;0.04;0.03;1.34;57.52;53.86;-0.24;-0.02;-0.23;-0.01;1764.63;59.47;374.4;364.59;16.26;1.52;329.44;0.92;0.64;0.08;0.07
304;R345;L5-3-S168;c1(cc2c(c3-c4c(c(cc5c4cccc5)[Si](c4ccccc4)(c4ccccc4)c4ccccc4)OP(=O)(Oc13)O)cccc2)[Si](c1ccccc1)(c1ccccc1)c1ccccc1.C(=N)(c1ccccc1O)c1ccc(cc1)C.c1ccccc1;;91;50;1.09;1.41;1.38;1.49;1.38;1.38;1.41;1.09;1.38;118.5;117.86;122.5;118.55;118.62;120.11;119.62;117.86;118.34;122.34;0.3;178.66;178.73;0.87;178.3;0.59;52.85;2.59;2.58;2.39;2.39;23.32;62.09;35.87;141.95;172.27;34.95;59.14;58.58;60.9;23.33;0.27;-0.28;0.32;-0.83;-0.83;0.32;-0.08;-0.09;-0.28;0.27;-0.25;-0.02;1526.07;1384.71;1384.71;3228.01;3224.58;102.04;176.82;176.82;7.88;3.18;2;1;1;11.65;2.09;5.32;4.58;1.35;11.78;2;1;1;466.57;480.84;17.67;1.57;476.52;1.18;0.21;0.06;0.05;1.33;51.89;50.27;-0.36;-0.16;-0.32;0;1752.73;50.1;191.24;161.83;39.33;1.33;158.15;3.83;2.56;0.51;0.44
305;R346;L5-3-S169;c1(cc2c(c3-c4c(c(cc5c4cccc5)[Si](c4ccccc4)(c4ccccc4)c4ccccc4)OP(=O)(Oc13)O)cccc2)[Si](c1ccccc1)(c1ccccc1)c1ccccc1.C(=N)(c1ccccc1O)c1ccc(cc1)c1ccccc1.c1ccccc1;;97;50;1.49;1.43;1.38;1.49;1.38;1.37;1.43;1.49;1.38;121.56;119.48;121.56;120.98;120.03;122.67;118.96;116.11;121.97;121.14;3.49;176.17;175.1;8.46;177.17;5.91;73.91;2.89;2.83;2.43;2.38;44.48;43.48;30.97;228.77;227.93;36.38;59.86;58.22;44.65;44.08;-0.06;-0.08;0.36;-0.81;-0.81;0.36;-0.09;-0.08;-0.07;-0.05;-0.25;-0.02;1050.05;1269.46;1269.46;1211.73;1211.73;61.95;241.46;241.46;98.16;98.16;6.33;1.62;4.37;7.48;1.52;6.53;7.48;1.52;6.53;6.33;1.62;4.37;823.83;917.16;6.67;1.8;862.99;1.12;0.05;0.04;0.03;1.35;83.79;31.66;-0.41;0.24;-0.28;-0.03;1702.53;745.09;270.57;247.26;42.25;1.42;298.14;0.97;0.77;0.14;0.12
306;R347;L5-3-S170;c1(cc2c(c3-c4c(c(cc5c4cccc5)[Si](c4ccccc4)(c4ccccc4)c4ccccc4)OP(=O)(Oc13)O)cccc2)[Si](c1ccccc1)(c1ccccc1)c1ccccc1.C(=N)(c1ccccc1O)c1ccc(cc1)Cl.c1ccccc1;;93;50;1.09;1.43;1.85;1.5;1.39;1.86;1.42;1.09;1.39;119.31;117.17;118.86;121.45;120.04;117.7;122.8;122.76;119.44;119.51;8.94;176.89;174.09;3.21;179.06;3.02;80.1;2.9;3.03;2.81;2.89;23.02;54.02;41.63;365.63;383.84;39.55;37.46;42.18;55.15;23.97;0.27;-0.25;-0.33;0.9;0.91;-0.33;-0.02;-0.04;-0.25;0.26;-0.25;-0.02;1228.24;1197.77;1173.17;3218.98;3224.16;0.86;1.58;1.38;2.12;7.92;2;1;1;7.12;2.38;5.84;7.12;2.38;5.84;2;1;1;597.86;662.41;0;1.63;622.69;3.05;0.09;0.06;0.06;1.34;45.45;55.79;-0.16;0.03;-0.28;-0.03;1739.2;256.68;300.87;292.86;45.76;1.41;281.31;2.68;0.48;0.25;0.22
307;R348;L5-3-S171;c1(cc2c(c3-c4c(c(cc5c4cccc5)[Si](c4ccccc4)(c4ccccc4)c4ccccc4)OP(=O)(Oc13)O)cccc2)[Si](c1ccccc1)(c1ccccc1)c1ccccc1.C(=N)(c1ccccc1O)c1ccc(cc1)Oc1ccccc1.c1ccccc1;;93;50;1.89;1.42;1.39;1.49;1.38;1.39;1.42;1.89;1.38;121.47;116.67;124.23;120.61;120.76;118.79;118.9;116.84;121.35;126.32;5.21;169.6;169.69;2.54;168.55;6.88;55.11;3.06;3.06;2.39;2.39;400.09;53.2;35.15;172.22;168.95;32.68;61.85;62.51;55.18;402.59;1.89;-0.55;0.34;-0.83;-0.83;0.34;-0.08;-0.08;-0.55;1.89;-0.26;-0.02;1500.07;1277.65;1277.65;787.23;787.23;52.93;94.94;94.94;28.57;28.57;6.38;4.21;6.49;5.23;1.35;3.89;4.92;1.35;3.98;6.38;4.21;6.49;822.06;885.7;40.55;1.84;865.09;3.54;0.06;0.03;0.03;1.28;6.12;-105.4;0.28;-0.63;-0.26;-0.01;1745.24;179.52;306.67;296.42;37.6;1.43;273.33;2.33;0.42;0.21;0.15
308;R349;L5-3-S172;c1(cc2c(c3-c4c(c(cc5c4cccc5)[Si](c4ccccc4)(c4ccccc4)c4ccccc4)OP(=O)(Oc13)O)cccc2)[Si](c1ccccc1)(c1ccccc1)c1ccccc1.C(=N)(c1ccccc1O)c1ccc(cc1)N(=O)=O.c1ccccc1;;93;50;1.49;1.42;1.39;1.49;1.38;1.39;1.42;1.5;1.38;120.43;116.32;123.86;120.18;119.36;118.87;119.71;116.69;120.16;131.9;7.36;176.48;177.12;1;172.77;8.12;49.8;2.8;2.8;2.39;2.39;51.47;48.52;38.95;184.03;178.96;39.02;61.19;61.49;49.67;51.34;-0.06;-0.07;0.33;-0.83;-0.83;0.33;-0.07;-0.07;-0.07;-0.07;-0.26;-0.03;1503.56;1267.49;1273.27;1536.7;1536.7;34.32;16.35;56.47;12.59;12.59;8.48;3.09;5.68;5.23;1.35;3.89;4.92;1.35;3.98;8.48;3.09;5.68;783.2;811.15;42.5;1.86;752.98;4.13;0.06;0.04;0.03;1.28;9.33;-137.86;0.33;-0.46;-0.26;0;1759.85;279.4;289.42;271.12;13.88;1.43;239.32;3.76;1.34;0.17;0.16
309;R350;L5-3-S173;c1(cc2c(c3-c4c(c(cc5c4cccc5)[Si](c4ccccc4)(c4ccccc4)c4ccccc4)OP(=O)(Oc13)O)cccc2)[Si](c1ccccc1)(c1ccccc1)c1ccccc1.C(=N)(c1ccccc1O)c1ccc(cc1)C(=O)OC.c1ccccc1;;98;50;1.36;1.44;1.86;1.5;1.39;1.86;1.44;1.35;1.38;114.13;111.8;118.38;124.02;120.42;116.1;129.59;125.3;115.5;118.61;3.72;171.31;173.48;8.05;173.37;6.48;93.27;2.73;3.11;2.74;2.94;178.03;32.26;50.07;377.81;390.68;52.06;34.73;39.54;31.11;181.73;-0.57;0.34;-0.36;0.91;0.9;-0.36;0;-0.03;0.34;-0.57;-0.25;-0.02;1093.23;1230.97;1265.86;1230.97;1265.86;13.44;137.29;165.64;129.78;165.64;5.15;1.35;4.16;7.12;2.38;5.84;7.12;2.38;5.84;5.15;1.35;4.16;716.44;788.04;5.8;1.74;738.85;3.63;0.07;0.05;0.04;1.33;80.81;50.47;-0.44;0.03;-0.3;0.01;1741.77;389.88;173.2;146;44.92;1.29;143.14;8.49;2.06;1;0.92
310;R351;L5-3-S174;c1(cc2c(c3-c4c(c(cc5c4cccc5)[Si](c4ccccc4)(c4ccccc4)c4ccccc4)OP(=O)(Oc13)O)cccc2)[Si](c1ccccc1)(c1ccccc1)c1ccccc1.C(=N)(c1ccccc1O)c1cccc(c1)C.c1ccccc1;;92;50;1.09;1.42;1.37;1.49;1.38;1.37;1.42;1.09;1.38;118.99;119.28;121.78;119.46;119.67;123.36;118.94;115.05;117.83;121.46;0.93;178.68;176.98;3.31;179.43;3.3;63.66;2.63;2.52;2.41;2.35;23.73;62;29.15;225.52;227.07;33.37;61.51;60.66;57.44;23.63;0.27;-0.29;0.35;-0.8;-0.81;0.35;-0.09;-0.09;-0.27;0.27;-0.25;-0.02;1100.12;1305.45;1283.34;3214.82;3201.38;54.41;90.96;120.03;6.64;3.51;2;1;1;8.55;1.35;7.91;8.55;1.35;7.91;2;1;1;799.25;829.05;6.92;1.87;766.9;1.52;0.06;0.04;0.04;1.35;49.31;58.28;-0.18;0.04;-0.27;-0.03;1745.18;183.77;249.99;229.41;44.78;1.38;219.24;2.13;0.91;0.33;0.26
311;R352;L5-3-S175;c1(cc2c(c3-c4c(c(cc5c4cccc5)[Si](c4ccccc4)(c4ccccc4)c4ccccc4)OP(=O)(Oc13)O)cccc2)[Si](c1ccccc1)(c1ccccc1)c1ccccc1.C(=N)(c1ccccc1O)c1cccc(c1)OC.c1ccccc1;;90;50;1.09;1.42;1.37;1.49;1.38;1.37;1.42;1.09;1.38;118.99;119.28;121.78;119.46;119.67;123.36;118.94;115.05;117.83;121.46;0.93;178.68;176.98;3.31;179.43;3.3;63.66;2.63;2.52;2.41;2.35;23.73;62;29.15;225.52;227.07;33.37;61.51;60.66;57.44;23.63;0.27;-0.29;0.35;-0.8;-0.81;0.35;-0.09;-0.09;-0.27;0.27;-0.25;-0.02;1100.12;1305.45;1283.34;3214.82;3201.38;54.41;90.96;120.03;6.64;3.51;2;1;1;8.55;1.35;7.91;8.55;1.35;7.91;2;1;1;799.25;829.05;6.92;1.87;766.9;1.52;0.06;0.04;0.04;1.35;49.93;58.32;-0.18;0.04;-0.27;-0.03;1745.39;175.97;303.44;277.49;65;1.47;277.28;3.81;0.82;0.15;0.13
312;R353;L5-3-S176;c1(cc2c(c3-c4c(c(cc5c4cccc5)[Si](c4ccccc4)(c4ccccc4)c4ccccc4)OP(=O)(Oc13)O)cccc2)[Si](c1ccccc1)(c1ccccc1)c1ccccc1.C(=N)(c1ccccc1O)c1cccc(c1)N(=O)=O.c1ccccc1;;92;50;1.49;1.42;1.39;1.49;1.38;1.39;1.42;1.49;1.38;120.86;117.03;123.74;119.32;118.94;119.22;119.2;116.97;120.52;129.27;0.78;178.87;178.65;0.79;178.11;0.53;52.45;2.82;2.81;2.39;2.39;51.53;49.44;39.7;184.4;178.22;38.49;60.68;60.86;50.33;51.01;-0.01;-0.08;0.33;-0.82;-0.83;0.33;-0.07;-0.07;-0.09;-0.01;-0.23;-0.04;1505.32;1276.54;1276.54;1516.81;1516.81;47.38;119.67;119.67;6.97;6.97;6.4;1.53;5.61;5.23;1.35;3.89;4.92;1.35;3.98;6.4;1.53;5.61;650.7;692.74;49.81;1.72;700.73;3.71;0.07;0.04;0.04;1.34;39.97;80.58;0.14;-0.46;-0.28;-0.01;1738.96;109.81;216.07;195.43;25.5;1.33;195.65;3.1;1.47;0.36;0.32
313;R354;L5-3-S177;c1(cc2c(c3-c4c(c(cc5c4cccc5)[Si](c4ccccc4)(c4ccccc4)c4ccccc4)OP(=O)(Oc13)O)cccc2)[Si](c1ccccc1)(c1ccccc1)c1ccccc1.C(=N)(c1ccccc1O)c1ccccc1F.c1ccccc1;;91;50;1.09;1.43;1.85;1.5;1.39;1.86;1.42;1.09;1.39;119.37;116.92;118.89;121.57;120;117.79;123.01;122.67;119.54;119.51;8.88;176.85;173.4;2.68;179.27;2.68;79.94;2.89;3.03;2.8;2.89;22.91;32.27;21.11;279.74;297.99;19.05;17.47;20.3;34.65;23.92;0.27;-0.25;-0.33;0.9;0.91;-0.33;-0.02;-0.04;-0.25;0.27;-0.25;-0.02;1228.08;1197.56;1173.07;3219.05;3224.22;0.88;1.52;1.48;13.64;3.74;2;1;1;7.12;2.38;5.84;7.12;2.38;5.84;2;1;1;597.92;662.43;0;1.63;622.69;3.09;0.09;0.06;0.06;1.34;43.95;53.44;-0.16;-0.18;-0.31;0.01;1766.13;23.27;135.17;111.52;32.59;1.21;100.12;6.85;4.46;1.88;1.38
314;R355;L5-3-S178;c1(cc2c(c3-c4c(c(cc5c4cccc5)[Si](c4ccccc4)(c4ccccc4)c4ccccc4)OP(=O)(Oc13)O)cccc2)[Si](c1ccccc1)(c1ccccc1)c1ccccc1.C(=N)(c1cccc(c1O)C)c1ccccc1.c1ccccc1;;92;50;1.09;1.41;1.38;1.49;1.38;1.37;1.41;1.09;1.38;118.47;117.77;122.55;118.5;118.63;120.18;119.65;117.77;118.3;122.3;0.64;178.79;178.7;0.71;178.28;0.65;52.59;2.59;2.58;2.39;2.39;23.35;62.15;35.66;140.62;171.02;34.78;59.36;58.71;60.88;23.38;0.27;-0.28;0.32;-0.83;-0.83;0.32;-0.08;-0.09;-0.28;0.27;-0.25;-0.02;1523.48;1386.47;1386.47;3224.64;3230.77;95.25;157.78;157.78;5.26;8.49;2;1;1;6.57;1.35;3.87;4.58;1.35;5.49;2;1;1;354.56;360.63;15.63;1.45;359.37;2.33;0.26;0.2;0.13;1.33;51.89;50.27;-0.36;-0.16;-0.32;0;1752.73;50.1;191.24;161.83;39.33;1.33;158.15;3.83;2.56;0.51;0.44
315;R356;L5-3-S179;c1(cc2c(c3-c4c(c(cc5c4cccc5)[Si](c4ccccc4)(c4ccccc4)c4ccccc4)OP(=O)(Oc13)O)cccc2)[Si](c1ccccc1)(c1ccccc1)c1ccccc1.C(=N)(c1ccc(cc1O)C)c1ccccc1.c1ccccc1;;98;50;1.09;1.41;1.38;1.49;1.38;1.38;1.41;1.09;1.38;118.48;117.73;122.55;118.43;118.64;120.11;119.69;117.73;118.34;122.4;0.61;178.71;178.42;0.45;178.42;0.82;52.55;2.59;2.58;2.39;2.39;23.33;62.15;35.73;141.85;170.07;34.82;59.34;58.8;60.99;23.32;0.27;-0.28;0.32;-0.83;-0.83;0.32;-0.08;-0.09;-0.28;0.27;-0.25;-0.02;1524.66;1385.09;1385.09;3224.15;3227.2;96.85;174.22;174.22;4.58;3.67;2;1;1;7.74;2.01;3.86;4.57;1.35;6.83;2;1;1;384.37;393.64;23.33;1.48;401.4;1.02;0.24;0.13;0.1;1.34;60.87;46.82;-0.23;0.14;-0.26;0.01;1755.29;52.32;242.74;219.07;23.25;1.38;189.26;4.78;0.86;0.51;0.36