index;name;L-S;smiles;comment;%ee;T;BL32-1;BL1-6;BL6-34;BL5-12;BL12-11;BL33-11;BL11-16;BL16-31;BL6-5;BA32-1-6;BA1-6-34;BA1-6-5;BA6-5-12;BA5-12-11;BA12-11-33;BA5-6-34;BA33-11-16;BA11-16-31;BA12-11-16;DA32-1-6-34;DA32-1-6-5;DA1-6-5-12;DA5-12-11-33;DA12-11-16-31;DA33-11-16-31;DA6-5-12-11;NB32-34;NB33-31;NB1-34;NB33-16;NMR 32;NMR1;NMR6;NMR34;NMR33;NMR11;NMR12;NMR5;NMR16;NMR31;q32;q1;q6;q34;q33;q11;q12;q5;q16;q31;HOMO;LUMO;VF5-12;VF6-34;VF11-33;VF1-32;VF16-31;VI5-12;VI6-34;VI11-33;VI1-32;VI16-31;L1R1;B1R1;B5R1;L1R2;B1R2;B5R2;L1R3;B1R3;B5R3;L1R4;B1R4;B5R4;Area; Vol;PSA; Ovality;MW;dipolemoment;RCx;RCy;RCz;BL12-16S;NMR12-S;NMR16-S;q12-S;q16-S;HOMO-S;LUMO-S;VF12-16S;VI12-16S;Area-S; Vol-S;PSA-S; Ovality-S;MW-S;dipolemoment-S;RCx-S;RCy-S;RCz-S
342;R383;L2'-1-S3;CN(C)P1Oc2ccc3c(CCCC3)c2c4c(CCCC5)c5ccc4O1.C=C(C1=CC=CC=C1)NC(C)=O.ClCCl;out of bag;84;24;1.09;1.09;1.39;1.38;1.4;1.49;1.4;1.38;1.39;119.15;119.04;122.14;117.79;117.66;119.57;118.82;118.88;119.25;121.55;0.49;179.2;179.52;2.24;178.65;1.57;54.99;2.6;2.6;2.39;2.39;23.91;66.71;36.66;178.61;149.04;36.62;52.67;53.51;64.62;23.94;0.27;-0.29;0.31;-0.83;-0.83;0.31;-0.09;-0.09;-0.29;0.27;-0.27;0.01;1532.1;1283.68;1311.43;3198.18;3207.12;59.37;95.76;159.1;11.63;9.96;2;1;1;7.12;2.38;5.84;7.12;2.38;5.84;2;1;1;372.42;377.77;15.71;1.47;367.43;2.67;0.25;0.19;0.12;1.29;2.84;66.48;0.42;-0.68;-0.26;-0.01;1738.3;524.43;277.7;256.73;22.36;1.42;247.72;14.19;0.61;0.28;0.22
343;R384;L2'-3-S3;c12c(CCCC2)c3c(OP(N4CCCCC4)Oc5ccc6c(CCCC6)c53)cc1.C=C(C1=CC=CC=C1)NC(C)=O.ClCCl;out of bag;98;24;1.09;1.09;1.39;1.38;1.4;1.49;1.41;1.38;1.39;119.04;118.8;122.13;117.92;117.93;119.4;119.07;118.56;118.96;122.04;0.44;179.46;179.93;0.72;178.81;0.95;52.87;2.59;2.59;2.38;2.38;23.9;66.16;36.02;177.3;148.3;35.75;54.62;54.24;65.07;23.84;0.27;-0.29;0.31;-0.83;-0.83;0.31;-0.09;-0.08;-0.29;0.27;-0.27;0.01;1532.63;1295.85;1317.71;3217.52;3223.04;132.88;80.23;128.18;9.26;3.78;2;1;1;7.75;2.01;3.87;4.65;1.35;7.56;2;1;1;406.23;419.65;15.58;1.5;407.49;2.91;0.24;0.13;0.09;1.29;2.84;66.48;0.42;-0.68;-0.26;-0.01;1738.3;524.43;277.7;256.73;22.36;1.42;247.72;14.19;0.61;0.28;0.22
344;R385;L2'-5-S3;c12c(CCCC2)c3c(OP(N4CCOCC4)Oc5ccc6c(CCCC6)c53)cc1.C=C(C1=CC=CC=C1)NC(C)=O.ClCCl;out of bag;97;24;1.09;1.09;1.39;1.38;1.4;1.49;1.41;1.38;1.39;119.04;118.8;122.13;117.92;117.93;119.4;119.07;118.56;118.96;122.04;0.44;179.46;179.93;0.72;178.81;0.95;52.87;2.59;2.59;2.38;2.38;23.9;66.16;36.02;177.3;148.3;35.75;54.62;54.24;65.07;23.84;0.27;-0.29;0.31;-0.83;-0.83;0.31;-0.09;-0.08;-0.29;0.27;-0.27;0.01;1532.63;1295.85;1317.71;3217.52;3223.04;132.88;80.23;128.18;9.26;3.78;2;1;1;7.75;2.01;3.87;4.65;1.35;7.56;2;1;1;406.23;419.65;15.58;1.5;407.49;2.91;0.24;0.13;0.09;1.28;4.8;-97.97;0.28;-0.65;-0.27;0;1742.55;195.62;227.34;213.21;37.61;1.32;197.24;2.72;1.26;0.38;0.33
345;R386;L2'-1-S4;CN(C)P1Oc2ccc3c(CCCC3)c2c4c(CCCC5)c5ccc4O1.C=C(C1=CC=C(Cl)C=C1)NC(C)=O.ClCCl;out of bag;86;24;1.09;1.09;1.39;1.38;1.4;1.49;1.4;1.38;1.39;119.15;119.04;122.14;117.79;117.66;119.57;118.82;118.88;119.25;121.55;0.49;179.2;179.52;2.24;178.65;1.57;54.99;2.6;2.6;2.39;2.39;23.91;66.71;36.66;178.61;149.04;36.62;52.67;53.51;64.62;23.94;0.27;-0.29;0.31;-0.83;-0.83;0.31;-0.09;-0.09;-0.29;0.27;-0.27;0.01;1532.1;1283.68;1311.43;3198.18;3207.12;59.37;95.76;159.1;11.63;9.96;2;1;1;7.12;2.38;5.84;7.12;2.38;5.84;2;1;1;372.42;377.77;15.71;1.47;367.43;2.67;0.25;0.19;0.12;1.34;43.73;88.15;0.14;-0.5;-0.27;0;1734.3;55.81;219.01;196.15;22;1.34;195.65;3.64;2.12;0.28;0.25
346;R387;L2'-3-S4;c12c(CCCC2)c3c(OP(N4CCCCC4)Oc5ccc6c(CCCC6)c53)cc1.C=C(C1=CC=C(Cl)C=C1)NC(C)=O.ClCCl;out of bag;98;24;1.09;1.09;1.39;1.38;1.4;1.49;1.41;1.38;1.39;119.04;118.8;122.13;117.92;117.93;119.4;119.07;118.56;118.96;122.04;0.44;179.46;179.93;0.72;178.81;0.95;52.87;2.59;2.59;2.38;2.38;23.9;66.16;36.02;177.3;148.3;35.75;54.62;54.24;65.07;23.84;0.27;-0.29;0.31;-0.83;-0.83;0.31;-0.09;-0.08;-0.29;0.27;-0.27;0.01;1532.63;1295.85;1317.71;3217.52;3223.04;132.88;80.23;128.18;9.26;3.78;2;1;1;7.75;2.01;3.87;4.65;1.35;7.56;2;1;1;406.23;419.65;15.58;1.5;407.49;2.91;0.24;0.13;0.09;1.34;43.73;88.15;0.14;-0.5;-0.27;0;1734.3;55.81;219.01;196.15;22;1.34;195.65;3.64;2.12;0.28;0.25
347;R388;L2'-5-S4;c12c(CCCC2)c3c(OP(N4CCOCC4)Oc5ccc6c(CCCC6)c53)cc1.C=C(C1=CC=C(Cl)C=C1)NC(C)=O.ClCCl;out of bag;97;24;1.09;1.09;1.39;1.38;1.4;1.49;1.4;1.38;1.39;119.05;118.78;122.18;117.93;117.95;119.4;119.04;118.5;118.98;122.1;0.44;179.45;179.91;0.71;178.83;0.9;52.82;2.59;2.59;2.38;2.38;23.91;66.21;36.29;177.74;149.17;36.02;54.71;54.38;65.04;23.82;0.27;-0.29;0.31;-0.83;-0.83;0.31;-0.09;-0.08;-0.29;0.27;-0.27;0.01;1532.04;1295.06;1317.36;3219.78;3223.94;128.49;101.54;122.02;9.72;3.66;6.38;4.21;6.49;5.23;1.35;3.89;4.92;1.35;3.98;6.38;4.21;6.49;398.19;410.66;23.39;1.49;409.47;2.62;0.24;0.13;0.09;1.29;2.84;66.48;0.42;-0.68;-0.26;-0.01;1738.3;524.43;277.7;256.73;22.36;1.42;247.72;14.19;0.61;0.28;0.22
348;R389;L2'-1-S59;CN(C)P1Oc2ccc3c(CCCC3)c2c4c(CCCC5)c5ccc4O1.CC(N/C(C(OC)=O)=C\C1=CC=CC=C1)=O.ClCCl;out of bag;95;24;1.09;1.09;1.39;1.38;1.4;1.49;1.4;1.38;1.39;119.09;118.92;122.13;117.91;117.94;119.36;118.94;118.57;118.97;122.07;0.37;179.41;179.56;1.1;179.18;1.18;52.99;2.6;2.59;2.39;2.38;23.97;66.37;36.17;179.91;148.36;36.64;54.72;54.48;65.24;23.9;0.27;-0.29;0.31;-0.83;-0.83;0.31;-0.09;-0.08;-0.29;0.27;-0.27;0.01;1535.98;1289.55;1316.8;3218.68;3220.31;126.46;90.01;125.03;5.03;4.67;6.38;4.21;6.49;5.23;1.35;3.89;4.92;1.35;3.98;6.38;4.21;6.49;448.02;466.74;15.42;1.54;455.54;3.13;0.23;0.08;0.07;1.33;49.8;52.44;-0.15;-0.36;-0.33;0;1749.08;25.91;191.37;161.86;39.51;1.33;158.15;1.4;3.49;0.46;0.42
349;R390;L2'-2-S59;CCN(CC)P1Oc2ccc3c(CCCC3)c2c4c(CCCC5)c5ccc4O1.CC(N/C(C(OC)=O)=C\C1=CC=CC=C1)=O.ClCCl;out of bag;91;24;1.09;1.09;1.39;1.38;1.4;1.49;1.41;1.38;1.39;119.05;118.78;122.16;117.99;117.99;119.38;119.05;118.56;118.94;122.05;0.37;179.39;179.99;0.82;178.9;1.01;53.01;2.59;2.59;2.38;2.38;23.89;66.25;35.7;178.9;152.28;35.73;54.82;54.28;65.07;23.91;0.27;-0.29;0.31;-0.83;-0.83;0.31;-0.09;-0.08;-0.29;0.27;-0.27;0.01;1532.93;1289.91;1317.37;3192.56;3202.97;133.23;57.29;127.68;11.93;7.42;6.4;1.53;5.61;5.23;1.35;3.89;4.92;1.35;3.98;6.4;1.53;5.61;406.22;414.45;15.45;1.51;395.48;2.88;0.24;0.14;0.1;1.34;16.27;70.84;0.11;-0.42;-0.32;0;1728.23;354.9;187.54;159.32;53.11;1.32;158.15;7.23;2;0.55;0.46
350;R391;L2'-3-S59;c12c(CCCC2)c3c(OP(N4CCCCC4)Oc5ccc6c(CCCC6)c53)cc1.CC(N/C(C(OC)=O)=C\C1=CC=CC=C1)=O.ClCCl;out of bag;99;24;1.09;1.09;1.39;1.38;1.4;1.49;1.4;1.38;1.39;119.09;118.96;122.12;117.97;118;119.43;118.92;118.51;118.92;122.06;0.42;179.4;179.28;1.58;179.03;1.05;52.94;2.6;2.59;2.39;2.38;23.85;66.2;36.15;176.77;149.44;36.41;54.88;54.26;65.06;23.95;0.27;-0.29;0.31;-0.83;-0.83;0.31;-0.09;-0.08;-0.29;0.27;-0.25;0.01;1535.32;1294.45;1317.22;3223.17;3228.46;131.07;98.72;117.55;4.07;4.27;2;1;1;7.74;2.01;3.86;4.57;1.35;6.83;2;1;1;480.04;497.8;17.61;1.58;484.58;2.53;0.2;0.06;0.05;1.34;16.27;70.84;0.11;-0.42;-0.32;0;1728.23;354.9;187.54;159.32;53.11;1.32;158.15;7.23;2;0.55;0.46
351;R392;L2'-4-S59;c12c(CCCC2)c3c(OP(N4CCCCCC4)Oc5ccc6c(CCCC6)c53)cc1.CC(N/C(C(OC)=O)=C\C1=CC=CC=C1)=O.ClCCl;out of bag;96;24;1.09;1.09;1.39;1.38;1.4;1.49;1.4;1.38;1.39;119.09;118.92;122.13;117.91;117.94;119.36;118.94;118.57;118.97;122.07;0.37;179.41;179.56;1.1;179.18;1.18;52.99;2.6;2.59;2.39;2.38;23.97;66.37;36.17;179.91;148.36;36.64;54.72;54.48;65.24;23.9;0.27;-0.29;0.31;-0.83;-0.83;0.31;-0.09;-0.08;-0.29;0.27;-0.27;0.01;1535.98;1289.55;1316.8;3218.68;3220.31;126.46;90.01;125.03;5.03;4.67;6.38;4.21;6.49;5.23;1.35;3.89;4.92;1.35;3.98;6.38;4.21;6.49;448.02;466.74;15.42;1.54;455.54;3.13;0.23;0.08;0.07;1.34;53.58;79.9;0.03;-0.44;-0.29;0;1740.59;88.62;175.48;146.85;41.41;1.3;143.14;3.49;3.39;0.69;0.58
352;R393;L2'-5-S59;c12c(CCCC2)c3c(OP(N4CCOCC4)Oc5ccc6c(CCCC6)c53)cc1.CC(N/C(C(OC)=O)=C\C1=CC=CC=C1)=O.ClCCl;out of bag;99;24;1.09;1.09;1.39;1.38;1.4;1.49;1.41;1.38;1.39;119.04;118.8;122.13;117.92;117.93;119.4;119.07;118.56;118.96;122.04;0.44;179.46;179.93;0.72;178.81;0.95;52.87;2.59;2.59;2.38;2.38;23.9;66.16;36.02;177.3;148.3;35.75;54.62;54.24;65.07;23.84;0.27;-0.29;0.31;-0.83;-0.83;0.31;-0.09;-0.08;-0.29;0.27;-0.27;0.01;1532.63;1295.85;1317.71;3217.52;3223.04;132.88;80.23;128.18;9.26;3.78;2;1;1;7.75;2.01;3.87;4.65;1.35;7.56;2;1;1;406.23;419.65;15.58;1.5;407.49;2.91;0.24;0.13;0.09;1.28;16.16;-111.2;0.33;-0.49;-0.25;-0.01;1755.16;325.59;269.69;252.96;12.81;1.39;225.29;1.81;1.87;0.17;0.16
353;R394;L2'-6-S59;c12c(CCCC2)c3c(OP(N4CCN(C5=CC=CC=C5)CC4)Oc6ccc7c(CCCC7)c63)cc1.CC(N/C(C(OC)=O)=C\C1=CC=CC=C1)=O.ClCCl;out of bag;99;24;1.09;1.09;1.39;1.38;1.4;1.49;1.4;1.38;1.39;119.05;118.78;122.18;117.93;117.95;119.4;119.04;118.5;118.98;122.1;0.44;179.45;179.91;0.71;178.83;0.9;52.82;2.59;2.59;2.38;2.38;23.91;66.21;36.29;177.74;149.17;36.02;54.71;54.38;65.04;23.82;0.27;-0.29;0.31;-0.83;-0.83;0.31;-0.09;-0.08;-0.29;0.27;-0.27;0.01;1532.04;1295.06;1317.36;3219.78;3223.94;128.49;101.54;122.02;9.72;3.66;6.38;4.21;6.49;5.23;1.35;3.89;4.92;1.35;3.98;6.38;4.21;6.49;398.19;410.66;23.39;1.49;409.47;2.62;0.24;0.13;0.09;1.28;4.8;-97.97;0.28;-0.65;-0.27;0;1742.55;195.62;227.34;213.21;37.61;1.32;197.24;2.72;1.26;0.38;0.33
354;R395;L2'-7-S59;c12c(CCCC2)c3c(OP(N4CC(C=CC=C5)=C5CC4)Oc6ccc7c(CCCC7)c63)cc1.CC(N/C(C(OC)=O)=C\C1=CC=CC=C1)=O.ClCCl;out of bag;98;24;1.09;1.09;1.39;1.38;1.4;1.49;1.4;1.38;1.39;119.05;118.78;122.18;117.93;117.95;119.4;119.04;118.5;118.98;122.1;0.44;179.45;179.91;0.71;178.83;0.9;52.82;2.59;2.59;2.38;2.38;23.91;66.21;36.29;177.74;149.17;36.02;54.71;54.38;65.04;23.82;0.27;-0.29;0.31;-0.83;-0.83;0.31;-0.09;-0.08;-0.29;0.27;-0.27;0.01;1532.04;1295.06;1317.36;3219.78;3223.94;128.49;101.54;122.02;9.72;3.66;6.38;4.21;6.49;5.23;1.35;3.89;4.92;1.35;3.98;6.38;4.21;6.49;398.19;410.66;23.39;1.49;409.47;2.62;0.24;0.13;0.09;1.28;16.16;-111.2;0.33;-0.49;-0.25;-0.01;1755.16;325.59;269.69;252.96;12.81;1.39;225.29;1.81;1.87;0.17;0.16
355;R396;L2'-1-S60;CN(C)P1Oc2ccc3c(CCCC3)c2c4c(CCCC5)c5ccc4O1.C=C(C1=CC=C(OC)C=C1)NC(C)=O.ClCCl;out of bag;75;24;1.09;1.09;1.39;1.38;1.4;1.49;1.4;1.38;1.39;119.15;119.04;122.14;117.79;117.66;119.57;118.82;118.88;119.25;121.55;0.49;179.2;179.52;2.24;178.65;1.57;54.99;2.6;2.6;2.39;2.39;23.91;66.71;36.66;178.61;149.04;36.62;52.67;53.51;64.62;23.94;0.27;-0.29;0.31;-0.83;-0.83;0.31;-0.09;-0.09;-0.29;0.27;-0.27;0.01;1532.1;1283.68;1311.43;3198.18;3207.12;59.37;95.76;159.1;11.63;9.96;2;1;1;7.12;2.38;5.84;7.12;2.38;5.84;2;1;1;372.42;377.77;15.71;1.47;367.43;2.67;0.25;0.19;0.12;1.28;16.16;-111.2;0.33;-0.49;-0.25;-0.01;1755.16;325.59;269.69;252.96;12.81;1.39;225.29;1.81;1.87;0.17;0.16
356;R397;L2'-3-S60;c12c(CCCC2)c3c(OP(N4CCCCC4)Oc5ccc6c(CCCC6)c53)cc1.C=C(C1=CC=C(OC)C=C1)NC(C)=O.ClCCl;out of bag;99;24;1.09;1.09;1.39;1.38;1.4;1.49;1.4;1.38;1.39;119.09;118.96;122.12;117.97;118;119.43;118.92;118.51;118.92;122.06;0.42;179.4;179.28;1.58;179.03;1.05;52.94;2.6;2.59;2.39;2.38;23.85;66.2;36.15;176.77;149.44;36.41;54.88;54.26;65.06;23.95;0.27;-0.29;0.31;-0.83;-0.83;0.31;-0.09;-0.08;-0.29;0.27;-0.25;0.01;1535.32;1294.45;1317.22;3223.17;3228.46;131.07;98.72;117.55;4.07;4.27;2;1;1;7.74;2.01;3.86;4.57;1.35;6.83;2;1;1;480.04;497.8;17.61;1.58;484.58;2.53;0.2;0.06;0.05;1.33;49.8;52.44;-0.15;-0.36;-0.33;0;1749.08;25.91;191.37;161.86;39.51;1.33;158.15;1.4;3.49;0.46;0.42
357;R398;L2'-5-S60;c12c(CCCC2)c3c(OP(N4CCOCC4)Oc5ccc6c(CCCC6)c53)cc1.C=C(C1=CC=C(OC)C=C1)NC(C)=O.ClCCl;out of bag;98;24;1.09;1.09;1.39;1.38;1.4;1.49;1.4;1.38;1.39;119.05;118.78;122.18;117.93;117.95;119.4;119.04;118.5;118.98;122.1;0.44;179.45;179.91;0.71;178.83;0.9;52.82;2.59;2.59;2.38;2.38;23.91;66.21;36.29;177.74;149.17;36.02;54.71;54.38;65.04;23.82;0.27;-0.29;0.31;-0.83;-0.83;0.31;-0.09;-0.08;-0.29;0.27;-0.27;0.01;1532.04;1295.06;1317.36;3219.78;3223.94;128.49;101.54;122.02;9.72;3.66;6.38;4.21;6.49;5.23;1.35;3.89;4.92;1.35;3.98;6.38;4.21;6.49;398.19;410.66;23.39;1.49;409.47;2.62;0.24;0.13;0.09;1.33;49.8;52.44;-0.15;-0.36;-0.33;0;1749.08;25.91;191.37;161.86;39.51;1.33;158.15;1.4;3.49;0.46;0.42
358;R399;L2'-1-S61;CN(C)P1Oc2ccc3c(CCCC3)c2c4c(CCCC5)c5ccc4O1.CC(N/C(C1=CC=CC=C1)=C\CC)=O.ClCCl;out of bag;83;24;1.09;1.09;1.39;1.38;1.4;1.49;1.4;1.38;1.39;119.15;119.04;122.14;117.79;117.66;119.57;118.82;118.88;119.25;121.55;0.49;179.2;179.52;2.24;178.65;1.57;54.99;2.6;2.6;2.39;2.39;23.91;66.71;36.66;178.61;149.04;36.62;52.67;53.51;64.62;23.94;0.27;-0.29;0.31;-0.83;-0.83;0.31;-0.09;-0.09;-0.29;0.27;-0.27;0.01;1532.1;1283.68;1311.43;3198.18;3207.12;59.37;95.76;159.1;11.63;9.96;2;1;1;7.12;2.38;5.84;7.12;2.38;5.84;2;1;1;372.42;377.77;15.71;1.47;367.43;2.67;0.25;0.19;0.12;1.28;4.8;-97.97;0.28;-0.65;-0.27;0;1742.55;195.62;227.34;213.21;37.61;1.32;197.24;2.72;1.26;0.38;0.33
359;R400;L2'-3-S61;c12c(CCCC2)c3c(OP(N4CCCCC4)Oc5ccc6c(CCCC6)c53)cc1.CC(N/C(C1=CC=CC=C1)=C\CC)=O.ClCCl;out of bag;97;24;1.09;1.09;1.39;1.38;1.4;1.49;1.4;1.38;1.39;119.05;118.78;122.18;117.93;117.95;119.4;119.04;118.5;118.98;122.1;0.44;179.45;179.91;0.71;178.83;0.9;52.82;2.59;2.59;2.38;2.38;23.91;66.21;36.29;177.74;149.17;36.02;54.71;54.38;65.04;23.82;0.27;-0.29;0.31;-0.83;-0.83;0.31;-0.09;-0.08;-0.29;0.27;-0.27;0.01;1532.04;1295.06;1317.36;3219.78;3223.94;128.49;101.54;122.02;9.72;3.66;6.38;4.21;6.49;5.23;1.35;3.89;4.92;1.35;3.98;6.38;4.21;6.49;398.19;410.66;23.39;1.49;409.47;2.62;0.24;0.13;0.09;1.34;43.73;88.15;0.14;-0.5;-0.27;0;1734.3;55.81;219.01;196.15;22;1.34;195.65;3.64;2.12;0.28;0.25
360;R401;L2'-5-S61;c12c(CCCC2)c3c(OP(N4CCOCC4)Oc5ccc6c(CCCC6)c53)cc1.CC(N/C(C1=CC=CC=C1)=C\CC)=O.ClCCl;out of bag;99;24;1.09;1.09;1.39;1.38;1.4;1.49;1.41;1.38;1.39;119.04;118.8;122.13;117.92;117.93;119.4;119.07;118.56;118.96;122.04;0.44;179.46;179.93;0.72;178.81;0.95;52.87;2.59;2.59;2.38;2.38;23.9;66.16;36.02;177.3;148.3;35.75;54.62;54.24;65.07;23.84;0.27;-0.29;0.31;-0.83;-0.83;0.31;-0.09;-0.08;-0.29;0.27;-0.27;0.01;1532.63;1295.85;1317.71;3217.52;3223.04;132.88;80.23;128.18;9.26;3.78;2;1;1;7.75;2.01;3.87;4.65;1.35;7.56;2;1;1;406.23;419.65;15.58;1.5;407.49;2.91;0.24;0.13;0.09;1.33;49.8;52.44;-0.15;-0.36;-0.33;0;1749.08;25.91;191.37;161.86;39.51;1.33;158.15;1.4;3.49;0.46;0.42
361;R402;L2'-1-S62;CN(C)P1Oc2ccc3c(CCCC3)c2c4c(CCCC5)c5ccc4O1.CC(N/C(C1=CC=CC=C1)=C/CC)=O.ClCCl;out of bag;5;24;1.09;1.09;1.39;1.38;1.4;1.49;1.4;1.38;1.39;119.15;119.04;122.14;117.79;117.66;119.57;118.82;118.88;119.25;121.55;0.49;179.2;179.52;2.24;178.65;1.57;54.99;2.6;2.6;2.39;2.39;23.91;66.71;36.66;178.61;149.04;36.62;52.67;53.51;64.62;23.94;0.27;-0.29;0.31;-0.83;-0.83;0.31;-0.09;-0.09;-0.29;0.27;-0.27;0.01;1532.1;1283.68;1311.43;3198.18;3207.12;59.37;95.76;159.1;11.63;9.96;2;1;1;7.12;2.38;5.84;7.12;2.38;5.84;2;1;1;372.42;377.77;15.71;1.47;367.43;2.67;0.25;0.19;0.12;1.34;66.4;50.62;-0.25;0.14;-0.26;0.01;1756.08;12.36;241.02;218.75;22.35;1.37;189.26;4.71;0.85;0.48;0.33
362;R403;L2'-3-S62;c12c(CCCC2)c3c(OP(N4CCCCC4)Oc5ccc6c(CCCC6)c53)cc1.CC(N/C(C1=CC=CC=C1)=C/CC)=O.ClCCl;out of bag;5;24;1.09;1.09;1.39;1.38;1.4;1.49;1.41;1.38;1.39;119.04;118.8;122.13;117.92;117.93;119.4;119.07;118.56;118.96;122.04;0.44;179.46;179.93;0.72;178.81;0.95;52.87;2.59;2.59;2.38;2.38;23.9;66.16;36.02;177.3;148.3;35.75;54.62;54.24;65.07;23.84;0.27;-0.29;0.31;-0.83;-0.83;0.31;-0.09;-0.08;-0.29;0.27;-0.27;0.01;1532.63;1295.85;1317.71;3217.52;3223.04;132.88;80.23;128.18;9.26;3.78;2;1;1;7.75;2.01;3.87;4.65;1.35;7.56;2;1;1;406.23;419.65;15.58;1.5;407.49;2.91;0.24;0.13;0.09;1.34;66.4;50.62;-0.25;0.14;-0.26;0.01;1756.08;12.36;241.02;218.75;22.35;1.37;189.26;4.71;0.85;0.48;0.33
363;R404;L2'-5-S62;c12c(CCCC2)c3c(OP(N4CCOCC4)Oc5ccc6c(CCCC6)c53)cc1.CC(N/C(C1=CC=CC=C1)=C/CC)=O.ClCCl;out of bag;26;24;1.09;1.09;1.39;1.38;1.4;1.49;1.4;1.38;1.39;119.05;118.78;122.18;117.93;117.95;119.4;119.04;118.5;118.98;122.1;0.44;179.45;179.91;0.71;178.83;0.9;52.82;2.59;2.59;2.38;2.38;23.91;66.21;36.29;177.74;149.17;36.02;54.71;54.38;65.04;23.82;0.27;-0.29;0.31;-0.83;-0.83;0.31;-0.09;-0.08;-0.29;0.27;-0.27;0.01;1532.04;1295.06;1317.36;3219.78;3223.94;128.49;101.54;122.02;9.72;3.66;6.38;4.21;6.49;5.23;1.35;3.89;4.92;1.35;3.98;6.38;4.21;6.49;398.19;410.66;23.39;1.49;409.47;2.62;0.24;0.13;0.09;1.34;66.4;50.62;-0.25;0.14;-0.26;0.01;1756.08;12.36;241.02;218.75;22.35;1.37;189.26;4.71;0.85;0.48;0.33
364;R405;L3'-2-S71;CC1=C(OC)C(C)=CC(P(C2CCCCC2)C3CCCCC3)=C1C4=C(C)C(OC)=C(C)C=C4P(C5CCCCC5)C6CCCCC6.CC(N/C(C(O)=O)=C\C1=CC=CC=C1)=O.CO;out of bag;79;30;1.09;1.09;1.41;1.86;1.41;1.5;1.41;1.86;1.4;119.17;109.84;117.99;124.21;120;118.48;132.05;122.82;120.26;118.66;0.99;175.58;174.48;8.46;179.78;2.02;78.25;2.69;3.02;2.69;2.87;23.47;50.16;44.95;352.47;382.12;46.9;36.72;40.63;52.3;23.55;0.25;-0.25;-0.33;0.87;0.88;-0.34;-0.04;-0.06;-0.25;0.25;-0.25;0.02;1538.86;1137.84;1137.84;3196.75;3209.65;94.58;258.04;258.04;7.67;11.86;2;1;1;4.27;1.9;4.94;4.27;1.9;4.94;2;1;1;708.42;739.44;12.86;1.79;662.92;5.29;0.07;0.06;0.05;1.35;64.31;51.85;0.03;-0.18;-0.27;-0.03;1746.38;94.45;230.14;209.4;55.47;1.35;205.21;3.25;0.9;0.43;0.31
365;R406;L3'-3-S71;CC1=C(OC)C(C)=CC(P(C2=CC=CC=C2)C3=CC=CC=C3)=C1C4=C(C)C(OC)=C(C)C=C4P(C5CCCCC5)C6CCCCC6.CC(N/C(C(O)=O)=C\C1=CC=CC=C1)=O.CO;out of bag;61;30;1.09;1.09;1.4;1.86;1.42;1.5;1.41;1.86;1.4;120.06;119.18;118.75;119.89;120.35;118.38;121.22;122.95;120.25;118.55;7.29;176.86;177.08;9.7;178.87;5.1;75.25;2.93;3.03;2.81;2.87;23.88;50.58;46.86;368.91;382.48;46.76;36.96;39.25;52.88;23.71;0.26;-0.24;-0.34;0.9;0.88;-0.34;-0.05;-0.05;-0.25;0.25;-0.25;0;1533.43;1137.65;1137.65;3205.77;3206.15;66.72;278.97;278.97;13.57;4.58;2;1;1;4.27;1.9;4.94;7.12;2.38;5.84;2;1;1;675.11;713.31;12.89;1.75;650.82;4.36;0.07;0.06;0.05;1.35;64.31;51.85;0.03;-0.18;-0.27;-0.03;1746.38;94.45;230.14;209.4;55.47;1.35;205.21;3.25;0.9;0.43;0.31
366;R407;L3'-2-S191;CC1=C(OC)C(C)=CC(P(C2CCCCC2)C3CCCCC3)=C1C4=C(C)C(OC)=C(C)C=C4P(C5CCCCC5)C6CCCCC6.C=C(CC(O)=O)C(O)=O.CO;out of bag;80;30;1.09;1.09;1.41;1.86;1.41;1.5;1.41;1.86;1.4;119.17;109.84;117.99;124.21;120;118.48;132.05;122.82;120.26;118.66;0.99;175.58;174.48;8.46;179.78;2.02;78.25;2.69;3.02;2.69;2.87;23.47;50.16;44.95;352.47;382.12;46.9;36.72;40.63;52.3;23.55;0.25;-0.25;-0.33;0.87;0.88;-0.34;-0.04;-0.06;-0.25;0.25;-0.25;0.02;1538.86;1137.84;1137.84;3196.75;3209.65;94.58;258.04;258.04;7.67;11.86;2;1;1;4.27;1.9;4.94;4.27;1.9;4.94;2;1;1;708.42;739.44;12.86;1.79;662.92;5.29;0.07;0.06;0.05;1.33;51.18;46.67;-0.17;-0.35;-0.33;-0.01;1743.66;29.32;147.57;121.37;66.75;1.24;130.1;1.73;3.63;0.91;0.77
367;R408;L3'-3-S191;CC1=C(OC)C(C)=CC(P(C2=CC=CC=C2)C3=CC=CC=C3)=C1C4=C(C)C(OC)=C(C)C=C4P(C5CCCCC5)C6CCCCC6.C=C(CC(O)=O)C(O)=O.CO;out of bag;71;30;1.09;1.09;1.4;1.86;1.42;1.5;1.41;1.86;1.4;120.06;119.18;118.75;119.89;120.35;118.38;121.22;122.95;120.25;118.55;7.29;176.86;177.08;9.7;178.87;5.1;75.25;2.93;3.03;2.81;2.87;23.88;50.58;46.86;368.91;382.48;46.76;36.96;39.25;52.88;23.71;0.26;-0.24;-0.34;0.9;0.88;-0.34;-0.05;-0.05;-0.25;0.25;-0.25;0;1533.43;1137.65;1137.65;3205.77;3206.15;66.72;278.97;278.97;13.57;4.58;2;1;1;4.27;1.9;4.94;7.12;2.38;5.84;2;1;1;675.11;713.31;12.89;1.75;650.82;4.36;0.07;0.06;0.05;1.33;51.18;46.67;-0.17;-0.35;-0.33;-0.01;1743.66;29.32;147.57;121.37;66.75;1.24;130.1;1.73;3.63;0.91;0.77
368;R409;L3'-1-S192;CC1=C(OC)C(C)=CC(P(C2=CC=CC=C2)C3=CC=CC=C3)=C1C4=C(C)C(OC)=C(C)C=C4P(C5=CC=CC=C5)C6=CC=CC=C6.O=C(/C(CC(O)=O)=C/C1=CC=C(OCO2)C2=C1)OC.CO;out of bag;56;30;1.09;1.09;1.4;1.86;1.41;1.5;1.41;1.86;1.39;119.36;110.31;118.84;121.56;118.7;119.54;130.5;121.02;120.1;118.98;7.98;178.12;169.77;7.72;177.8;5.69;71.28;2.71;2.97;2.69;2.84;23.44;47.48;51.74;369.2;380.78;43.58;43.08;37.83;51.79;25.85;0.26;-0.24;-0.35;0.89;0.9;-0.34;-0.05;-0.05;-0.24;0.26;-0.25;0;1536.87;1137.62;1137.62;3190.45;3204.86;57.86;299.01;299.01;6.79;5.32;2;1;1;7.12;2.38;5.84;7.12;2.38;5.84;2;1;1;629.17;684.75;12.81;1.67;638.73;5.97;0.08;0.07;0.05;1.34;55.17;37.78;-0.13;-0.15;-0.29;-0.03;1745.35;29.37;265.01;245.67;67.81;1.4;262.22;4.79;0.73;0.21;0.18