index;name;L-S;smiles;comment;%ee;T;BL32-1;BL1-6;BL6-34;BL5-12;BL12-11;BL33-11;BL11-16;BL16-31;BL6-5;BA32-1-6;BA1-6-34;BA1-6-5;BA6-5-12;BA5-12-11;BA12-11-33;BA5-6-34;BA33-11-16;BA11-16-31;BA12-11-16;DA32-1-6-34;DA32-1-6-5;DA1-6-5-12;DA5-12-11-33;DA12-11-16-31;DA33-11-16-31;DA6-5-12-11;NB32-34;NB33-31;NB1-34;NB33-16;NMR 32;NMR1;NMR6;NMR34;NMR33;NMR11;NMR12;NMR5;NMR16;NMR31;q32;q1;q6;q34;q33;q11;q12;q5;q16;q31;HOMO;LUMO;VF5-12;VF6-34;VF11-33;VF1-32;VF16-31;VI5-12;VI6-34;VI11-33;VI1-32;VI16-31;L1R1;B1R1;B5R1;L1R2;B1R2;B5R2;L1R3;B1R3;B5R3;L1R4;B1R4;B5R4;Area; Vol;PSA; Ovality;MW;dipolemoment;RCx;RCy;RCz;BL12-16S;NMR12-S;NMR16-S;q12-S;q16-S;HOMO-S;LUMO-S;VF12-16S;VI12-16S;Area-S; Vol-S;PSA-S; Ovality-S;MW-S;dipolemoment-S;RCx-S;RCy-S;RCz-S
109;R110;L2-9-S62;c1cc2c(c3c1op(oc1c3c3ccccc3cc1)N(CC)CC)cccc2.C(=C(\NC(=O)C)/c1ccccc1)/CC.ClCCl;;1;24;1.09;1.41;1.38;1.49;1.38;1.37;1.41;1.09;1.38;118.48;117.78;122.54;118.5;118.65;120.16;119.65;117.78;118.28;122.33;0.3;178.6;178.54;0.5;178.49;0.64;52.7;2.59;2.58;2.39;2.38;23.31;61.96;35.28;144.98;171.09;34.37;59.61;58.63;61.01;23.33;0.27;-0.28;0.32;-0.83;-0.83;0.32;-0.08;-0.09;-0.28;0.27;-0.25;-0.02;1525.7;1384.93;1384.93;3229.56;3224.53;97.82;171.4;171.4;4.78;5.87;2;1;1;7.17;1.96;3.87;5.39;1.35;6.38;2;1;1;392.51;397.44;15.44;1.5;387.42;2.49;0.24;0.15;0.11;1.34;66.4;50.62;-0.25;0.14;-0.26;0.01;1756.08;12.36;241.02;218.75;22.35;1.37;189.26;4.71;0.85;0.48;0.33
110;R111;L2-9-S1;c1cc2c(c3c1op(oc1c3c3ccccc3cc1)N(CC)CC)cccc2.C=C(CC(=O)OC)C(=O)OC.ClCCl;;94;24;1.09;1.41;1.38;1.49;1.38;1.37;1.42;1.09;1.38;118.39;117.82;122.55;118.62;119.08;120.68;119.62;117.82;118.14;122.13;0.06;178.8;178.33;0.62;177.55;0.22;52.28;2.59;2.57;2.39;2.38;23.34;62.07;35.57;146.05;167.21;33.81;60.05;58.99;60.5;23.25;0.27;-0.28;0.32;-0.83;-0.83;0.33;-0.08;-0.09;-0.28;0.27;-0.25;-0.02;1521.67;1252.37;1252.37;3235.76;3237.19;99.89;154.52;154.52;4.27;4.58;2;1;1;8.84;1.47;3.89;4.93;1.35;7.63;2;1;1;408.26;420.03;15.68;1.51;413.46;2.65;0.24;0.11;0.09;1.34;87.83;44.15;-0.49;0.14;-0.27;0;1734.31;52.87;218.94;196.14;21.97;1.34;195.65;3.63;2.11;0.28;0.25
111;R112;L2-10-S2;c1cc2c(c3c1op(oc1c3c3ccccc3cc1)N1CCCC1)cccc2.C=C(NC(=O)C)C(=O)OC.ClCCl;;85;24;1.09;1.41;1.38;1.49;1.38;1.37;1.41;1.09;1.38;118.47;117.77;122.55;118.5;118.63;120.18;119.65;117.77;118.3;122.3;0.64;178.79;178.7;0.71;178.28;0.65;52.59;2.59;2.58;2.39;2.39;23.35;62.15;35.66;140.62;171.02;34.78;59.36;58.71;60.88;23.38;0.27;-0.28;0.32;-0.83;-0.83;0.32;-0.08;-0.09;-0.28;0.27;-0.25;-0.02;1523.48;1386.47;1386.47;3224.64;3230.77;95.25;157.78;157.78;5.26;8.49;2;1;1;6.57;1.35;3.87;4.58;1.35;5.49;2;1;1;354.56;360.63;15.63;1.45;359.37;2.33;0.26;0.2;0.13;1.34;88.87;43.1;-0.5;0.15;-0.27;0.01;1734.2;49.45;203.32;182.53;21.95;1.31;161.2;5.15;2.29;0.5;0.43
112;R113;L2-10-S59;c1cc2c(c3c1op(oc1c3c3ccccc3cc1)N1CCCC1)cccc2.C(=C(\NC(=O)C)/C(=O)OC)\c1ccccc1.ClCCl;;76;24;1.09;1.41;1.41;1.49;1.38;1.38;1.41;1.09;1.38;118.34;116.89;122.54;119.34;118.84;119.29;120.53;118;118.56;122.71;0.16;177.5;176.27;0.83;178.84;0.44;52.98;2.57;2.59;2.38;2.39;23.17;61.47;35.4;144.56;163.01;37.7;59.06;60.05;62.34;23.29;0.28;-0.28;0.32;-0.84;-0.84;0.31;-0.08;-0.08;-0.28;0.28;-0.25;-0.02;1522.16;1246.69;1276.42;3234.76;3229.96;80.81;140.03;193.47;2.8;2.64;2;1;1;5.98;1.54;3.76;5.86;1.35;3.87;2;1;1;329.34;337.38;22.35;1.41;346.32;3.19;0.27;0.23;0.14;1.34;42.65;89.35;0.15;-0.5;-0.27;0.01;1733.89;52.63;203.37;182.54;21.95;1.31;161.2;5.17;2.3;0.5;0.43
113;R114;L2-10-S3;c1cc2c(c3c1op(oc1c3c3ccccc3cc1)N1CCCC1)cccc2.C(=C)(c1ccccc1)NC(=O)C.ClCCl;;82;24;1.49;1.42;1.39;1.49;1.38;1.39;1.42;1.48;1.38;121.93;117.47;123.09;119.72;119.58;118.61;119.25;117.59;121.38;126.3;1.05;173.83;171.62;0.2;178.73;0.54;53.75;2.85;2.84;2.41;2.4;43.04;49.8;42.68;184.33;185.61;42.3;59.67;60.7;51.16;43.08;-0.04;-0.08;0.33;-0.83;-0.83;0.33;-0.06;-0.07;-0.08;-0.04;-0.27;-0.04;1567.85;1227.36;1238.23;1505.24;1505.24;30.37;20.67;68.24;27.67;27.67;6.96;2.28;4.9;5.23;1.35;3.89;4.92;1.35;3.98;6.96;2.28;4.9;614.42;616.41;49.73;1.75;772.48;8.36;0.06;0.03;0.03;1.28;10.67;-139.07;0.32;-0.45;-0.26;-0.01;1770.47;208.68;301.41;284.21;13.98;1.44;293.29;3.36;0.69;0.14;0.13
114;R115;L2-10-S4;c1cc2c(c3c1op(oc1c3c3ccccc3cc1)N1CCCC1)cccc2.C(=C)(c1ccc(cc1)Cl)NC(=O)C.ClCCl;;83;24;1.09;1.43;1.85;1.5;1.39;1.86;1.42;1.09;1.39;119.37;116.92;118.89;121.57;120;117.79;123.01;122.67;119.54;119.51;8.88;176.85;173.4;2.68;179.27;2.68;79.94;2.89;3.03;2.8;2.89;22.91;32.27;21.11;279.74;297.99;19.05;17.47;20.3;34.65;23.92;0.27;-0.25;-0.33;0.9;0.91;-0.33;-0.02;-0.04;-0.25;0.27;-0.25;-0.02;1228.08;1197.56;1173.07;3219.05;3224.22;0.88;1.52;1.48;13.64;3.74;2;1;1;7.12;2.38;5.84;7.12;2.38;5.84;2;1;1;597.92;662.43;0;1.63;622.69;3.09;0.09;0.06;0.06;1.35;32.19;55.66;0.07;-0.17;-0.3;0.01;1751.66;120.16;202.85;176.85;51.75;1.33;172.18;7.59;1.95;0.48;0.43
115;R116;L2-10-S60;c1cc2c(c3c1op(oc1c3c3ccccc3cc1)N1CCCC1)cccc2.C=C(NC(=O)C)c1ccc(cc1)OC.ClCCl;;76;24;1.09;1.41;1.38;1.49;1.38;1.37;1.42;1.09;1.38;118.45;117.87;122.52;118.43;118.8;120.28;119.59;117.87;118.2;122.25;0.19;178.59;178.41;0.2;178.33;0.56;52.47;2.59;2.58;2.39;2.38;23.33;62.19;35.26;147.21;170.01;34.27;59.11;58.82;60.54;23.26;0.27;-0.28;0.32;-0.83;-0.83;0.32;-0.08;-0.08;-0.28;0.27;-0.25;-0.02;1525.15;1254.64;1254.64;3244.72;3233.94;100.47;141.97;141.97;3.54;3.85;2;1;1;7.84;1.45;3.87;4.55;1.35;6.76;2;1;1;377.23;386.01;15.78;1.47;385.4;2.93;0.25;0.15;0.11;1.35;57.04;62.91;-0.2;0.05;-0.27;-0.02;1751.43;44.03;251.68;229.55;41.26;1.39;219.24;2.78;0.77;0.35;0.26
116;R117;L2-10-S61;c1cc2c(c3c1op(oc1c3c3ccccc3cc1)N1CCCC1)cccc2.C(=C(\NC(=O)C)/c1ccccc1)\CC.ClCCl;;77;24;1.09;1.41;1.38;1.49;1.38;1.37;1.42;1.09;1.38;118.45;117.87;122.52;118.43;118.8;120.28;119.59;117.87;118.2;122.25;0.19;178.59;178.41;0.2;178.33;0.56;52.47;2.59;2.58;2.39;2.38;23.33;62.19;35.26;147.21;170.01;34.27;59.11;58.82;60.54;23.26;0.27;-0.28;0.32;-0.83;-0.83;0.32;-0.08;-0.08;-0.28;0.27;-0.25;-0.02;1525.15;1254.64;1254.64;3244.72;3233.94;100.47;141.97;141.97;3.54;3.85;2;1;1;7.84;1.45;3.87;4.55;1.35;6.76;2;1;1;377.23;386.01;15.78;1.47;385.4;2.93;0.25;0.15;0.11;1.34;60.87;46.82;-0.23;0.14;-0.26;0.01;1755.29;52.32;242.74;219.07;23.25;1.38;189.26;4.78;0.86;0.51;0.36
117;R118;L2-10-S62;c1cc2c(c3c1op(oc1c3c3ccccc3cc1)N1CCCC1)cccc2.C(=C(\NC(=O)C)/c1ccccc1)/CC.ClCCl;;0;24;1.09;1.41;1.38;1.49;1.38;1.37;1.42;1.09;1.38;118.45;117.87;122.52;118.43;118.8;120.28;119.59;117.87;118.2;122.25;0.19;178.59;178.41;0.2;178.33;0.56;52.47;2.59;2.58;2.39;2.38;23.33;62.19;35.26;147.21;170.01;34.27;59.11;58.82;60.54;23.26;0.27;-0.28;0.32;-0.83;-0.83;0.32;-0.08;-0.08;-0.28;0.27;-0.25;-0.02;1525.15;1254.64;1254.64;3244.72;3233.94;100.47;141.97;141.97;3.54;3.85;2;1;1;7.84;1.45;3.87;4.55;1.35;6.76;2;1;1;377.23;386.01;15.78;1.47;385.4;2.93;0.25;0.15;0.11;1.34;66.4;50.62;-0.25;0.14;-0.26;0.01;1756.08;12.36;241.02;218.75;22.35;1.37;189.26;4.71;0.85;0.48;0.33
118;R119;L2-10-S1;c1cc2c(c3c1op(oc1c3c3ccccc3cc1)N1CCCC1)cccc2.C=C(CC(=O)OC)C(=O)OC.ClCCl;;83;24;1.5;1.43;1.38;1.49;1.38;1.38;1.42;1.5;1.38;119.09;116.93;122.83;118.97;118.78;119.02;120.22;117.85;119.27;123.11;0.1;177.94;176.04;0.56;179.81;1.61;53.05;2.78;2.8;2.39;2.4;174.92;50.47;34.07;145.81;170.46;35.66;58.5;60.65;50.47;173.89;-0.71;-0.06;0.34;-0.83;-0.83;0.33;-0.07;-0.08;-0.06;-0.72;-0.25;-0.01;1514.86;1268.57;1281.21;1142.19;1133.9;69.11;55.67;224.42;73.62;49.91;2.99;1.5;2.04;9.68;1.35;11.12;10.56;1.66;8.01;2.99;1.5;2.04;661.57;689.16;14.09;1.75;661.72;4.6;0.1;0.04;0.04;1.28;15.23;-111.17;0.33;-0.49;-0.25;0.03;1750.95;410.46;316.73;304.23;12.76;1.45;275.35;5.02;1.45;0.1;0.1
119;R120;L2-1-S2;c1cc2c(c3c1op(oc1c3c3ccccc3cc1)N1CCCCC1)cccc2.C=C(NC(=O)C)C(=O)OC.ClCCl;;99;24;1.49;1.43;1.38;1.49;1.38;1.37;1.43;1.49;1.38;121.56;119.48;121.56;120.98;120.03;122.67;118.96;116.11;121.97;121.14;3.49;176.17;175.1;8.46;177.17;5.91;73.91;2.89;2.83;2.43;2.38;44.48;43.48;30.97;228.77;227.93;36.38;59.86;58.22;44.65;44.08;-0.06;-0.08;0.36;-0.81;-0.81;0.36;-0.09;-0.08;-0.07;-0.05;-0.25;-0.02;1050.05;1269.46;1269.46;1211.73;1211.73;61.95;241.46;241.46;98.16;98.16;6.33;1.62;4.37;7.48;1.52;6.53;7.48;1.52;6.53;6.33;1.62;4.37;823.83;917.16;6.67;1.8;862.99;1.12;0.05;0.04;0.03;1.36;86.31;30.88;-0.42;0.25;-0.27;-0.02;1691.93;1004.11;279.13;255.73;49.12;1.43;249.27;5.25;0.75;0.21;0.17
120;R121;L2-1-S59;c1cc2c(c3c1op(oc1c3c3ccccc3cc1)N1CCCCC1)cccc2.C(=C(\NC(=O)C)/C(=O)OC)\c1ccccc1.ClCCl;;99;24;1.09;1.41;1.37;1.49;1.38;1.38;1.41;1.09;1.38;118.29;117.64;122.25;118.76;118.48;119.61;120.11;117.91;118.46;122.45;0.25;178.41;178.36;0.04;178.64;0.49;52.67;2.58;2.59;2.39;2.39;23.3;61.12;34.48;141.59;169.68;35.55;58.62;59.44;62.03;23.31;0.27;-0.28;0.32;-0.83;-0.83;0.32;-0.08;-0.09;-0.28;0.27;-0.25;-0.02;1521.61;1252;1280.81;3225.36;3233.88;104.79;45.37;141.12;5.43;10.07;2;1;1;7.75;2.01;3.87;4.65;1.35;7.56;2;1;1;392.82;402.68;15.6;1.49;399.43;2.59;0.24;0.13;0.1;1.28;15.43;-112.51;0.33;-0.48;-0.26;-0.01;1759.12;349.68;306.85;289.39;12.4;1.45;253.34;1.68;1.07;0.15;0.14
121;R122;L2-1-S3;c1cc2c(c3c1op(oc1c3c3ccccc3cc1)N1CCCCC1)cccc2.C(=C)(c1ccccc1)NC(=O)C.ClCCl;;99;24;1.09;1.41;1.38;1.49;1.38;1.37;1.41;1.09;1.38;118.46;117.75;122.5;118.43;118.61;120.13;119.72;117.75;118.3;122.34;0.49;178.65;178.46;0.38;178.49;0.71;52.56;2.59;2.58;2.39;2.39;23.31;61.99;35.48;140.79;169.69;34.53;59.37;58.69;60.91;23.32;0.27;-0.28;0.32;-0.83;-0.83;0.32;-0.08;-0.09;-0.28;0.27;-0.25;-0.02;1525.5;1385.31;1385.31;3225.62;3224.92;99.41;192.88;192.88;5.62;6.31;2;1;1;7.72;2;3.86;4.58;1.35;7.56;2;1;1;392.45;402.63;15.53;1.49;399.43;2.62;0.24;0.13;0.1;1.35;57.04;62.91;-0.2;0.05;-0.27;-0.02;1751.43;44.03;251.68;229.55;41.26;1.39;219.24;2.78;0.77;0.35;0.26
122;R123;L2-1-S4;c1cc2c(c3c1op(oc1c3c3ccccc3cc1)N1CCCCC1)cccc2.C(=C)(c1ccc(cc1)Cl)NC(=O)C.ClCCl;;99;24;1.09;1.41;1.38;1.49;1.38;1.37;1.41;1.09;1.38;118.46;117.75;122.5;118.43;118.61;120.13;119.72;117.75;118.3;122.34;0.49;178.65;178.46;0.38;178.49;0.71;52.56;2.59;2.58;2.39;2.39;23.31;61.99;35.48;140.79;169.69;34.53;59.37;58.69;60.91;23.32;0.27;-0.28;0.32;-0.83;-0.83;0.32;-0.08;-0.09;-0.28;0.27;-0.25;-0.02;1525.5;1385.31;1385.31;3225.62;3224.92;99.41;192.88;192.88;5.62;6.31;2;1;1;7.72;2;3.86;4.58;1.35;7.56;2;1;1;392.45;402.63;15.53;1.49;399.43;2.62;0.24;0.13;0.1;1.34;90.82;43.29;-0.51;0.15;-0.25;0.02;1731.24;74.34;232.88;209.46;28.92;1.37;191.23;5.49;2.12;0.28;0.26
123;R124;L2-1-S60;c1cc2c(c3c1op(oc1c3c3ccccc3cc1)N1CCCCC1)cccc2.C=C(NC(=O)C)c1ccc(cc1)OC.ClCCl;;99;24;1.89;1.42;1.4;1.49;1.38;1.39;1.42;1.89;1.38;121.25;116.69;124.35;120.56;120.86;118.68;118.77;116.82;121.3;125.99;6.99;167.89;169.07;2.4;168.33;6.93;55.55;3.05;3.06;2.4;2.4;401.91;54.13;35.71;172.72;171.5;33.26;62.02;62.41;55.54;403.72;1.89;-0.55;0.33;-0.83;-0.83;0.34;-0.08;-0.07;-0.56;1.89;-0.26;-0.03;1498.8;1272.18;1272.18;786.91;786.91;65.57;128.32;128.32;37.77;37.77;6.38;4.21;6.49;5.23;1.35;3.89;4.92;1.35;3.98;6.38;4.21;6.49;825.6;886.42;42.16;1.85;865.09;4.21;0.06;0.03;0.03;1.34;32.6;68.06;-0.05;-0.43;-0.25;0.01;1722.5;38.24;389.33;370.81;23.68;1.56;326.51;2.7;0.61;0.1;0.09
124;R125;L2-1-S61;c1cc2c(c3c1op(oc1c3c3ccccc3cc1)N1CCCCC1)cccc2.C(=C(\NC(=O)C)/c1ccccc1)\CC.ClCCl;;96;24;1.09;1.43;1.85;1.5;1.39;1.86;1.42;1.09;1.39;119.36;116.94;118.88;121.55;119.99;117.77;123;122.69;119.53;119.51;8.89;176.85;173.43;2.8;179.24;2.76;79.95;2.89;3.03;2.8;2.89;23;53.96;41.44;366.24;383.3;39.66;37.48;42.35;55.16;23.88;0.27;-0.25;-0.33;0.9;0.91;-0.33;-0.02;-0.04;-0.25;0.27;-0.25;-0.02;1228.24;1197.77;1173.17;3218.98;3224.16;0.86;1.58;1.38;2.12;7.92;2;1;1;7.12;2.38;5.84;7.12;2.38;5.84;2;1;1;597.86;662.41;0;1.63;622.69;3.05;0.09;0.06;0.06;1.34;39.58;77.65;0.15;-0.45;-0.26;0;1751.61;89.57;256.88;242.51;14.9;1.37;215.3;5.63;1.13;0.33;0.28
125;R126;L2-1-S62;c1cc2c(c3c1op(oc1c3c3ccccc3cc1)N1CCCCC1)cccc2.C(=C(\NC(=O)C)/c1ccccc1)/CC.ClCCl;;3;24;1.09;1.41;1.38;1.49;1.38;1.37;1.41;1.09;1.38;118.46;117.75;122.5;118.43;118.61;120.13;119.72;117.75;118.3;122.34;0.49;178.65;178.46;0.38;178.49;0.71;52.56;2.59;2.58;2.39;2.39;23.31;61.99;35.48;140.79;169.69;34.53;59.37;58.69;60.91;23.32;0.27;-0.28;0.32;-0.83;-0.83;0.32;-0.08;-0.09;-0.28;0.27;-0.25;-0.02;1525.5;1385.31;1385.31;3225.62;3224.92;99.41;192.88;192.88;5.62;6.31;2;1;1;7.72;2;3.86;4.58;1.35;7.56;2;1;1;392.45;402.63;15.53;1.49;399.43;2.62;0.24;0.13;0.1;1.34;66.4;50.62;-0.25;0.14;-0.26;0.01;1756.08;12.36;241.02;218.75;22.35;1.37;189.26;4.71;0.85;0.48;0.33
126;R127;L2-1-S1;c1cc2c(c3c1op(oc1c3c3ccccc3cc1)N1CCCCC1)cccc2.C=C(CC(=O)OC)C(=O)OC.ClCCl;;99;24;1.49;1.43;1.38;1.49;1.38;1.37;1.43;1.49;1.38;121.56;119.48;121.56;120.98;120.03;122.67;118.96;116.11;121.97;121.14;3.49;176.17;175.1;8.46;177.17;5.91;73.91;2.89;2.83;2.43;2.38;44.48;43.48;30.97;228.77;227.93;36.38;59.86;58.22;44.65;44.08;-0.06;-0.08;0.36;-0.81;-0.81;0.36;-0.09;-0.08;-0.07;-0.05;-0.25;-0.02;1050.05;1269.46;1269.46;1211.73;1211.73;61.95;241.46;241.46;98.16;98.16;6.33;1.62;4.37;7.48;1.52;6.53;7.48;1.52;6.53;6.33;1.62;4.37;823.83;917.16;6.67;1.8;862.99;1.12;0.05;0.04;0.03;1.36;84.58;31.18;-0.41;0.25;-0.28;-0.03;1699.93;758.58;255.66;233.45;42.25;1.39;237.23;2.08;0.78;0.26;0.21
127;R128;L2-11-S2;c1cc2c(c3c1op(oc1c3c3ccccc3cc1)N1CCCCCC1)cccc2.C=C(NC(=O)C)C(=O)OC.ClCCl;;97;24;1.09;1.41;1.38;1.49;1.38;1.37;1.41;1.09;1.38;118.47;117.77;122.55;118.5;118.63;120.18;119.65;117.77;118.3;122.3;0.64;178.79;178.7;0.71;178.28;0.65;52.59;2.59;2.58;2.39;2.39;23.35;62.15;35.66;140.62;171.02;34.78;59.36;58.71;60.88;23.38;0.27;-0.28;0.32;-0.83;-0.83;0.32;-0.08;-0.09;-0.28;0.27;-0.25;-0.02;1523.48;1386.47;1386.47;3224.64;3230.77;95.25;157.78;157.78;5.26;8.49;2;1;1;6.57;1.35;3.87;4.58;1.35;5.49;2;1;1;354.56;360.63;15.63;1.45;359.37;2.33;0.26;0.2;0.13;1.34;80.04;53.6;-0.44;0.03;-0.29;0;1743.25;89.92;175.49;146.86;41.4;1.3;143.14;3.51;3.38;0.69;0.58
128;R129;L2-11-S59;c1cc2c(c3c1op(oc1c3c3ccccc3cc1)N1CCCCCC1)cccc2.C(=C(\NC(=O)C)/C(=O)OC)\c1ccccc1.ClCCl;;97;24;1.09;1.41;1.37;1.49;1.38;1.38;1.41;1.09;1.38;118.29;117.64;122.25;118.76;118.48;119.61;120.11;117.91;118.46;122.45;0.25;178.41;178.36;0.04;178.64;0.49;52.67;2.58;2.59;2.39;2.39;23.3;61.12;34.48;141.59;169.68;35.55;58.62;59.44;62.03;23.31;0.27;-0.28;0.32;-0.83;-0.83;0.32;-0.08;-0.09;-0.28;0.27;-0.25;-0.02;1521.61;1252;1280.81;3225.36;3233.88;104.79;45.37;141.12;5.43;10.07;2;1;1;7.75;2.01;3.87;4.65;1.35;7.56;2;1;1;392.82;402.68;15.6;1.49;399.43;2.59;0.24;0.13;0.1;1.28;12.71;-97.83;0.34;-0.49;-0.28;-0.06;1761.83;386.17;267.79;252.64;10.76;1.39;225.29;3.38;1.08;0.25;0.22
129;R130;L2-11-S3;c1cc2c(c3c1op(oc1c3c3ccccc3cc1)N1CCCCCC1)cccc2.C(=C)(c1ccccc1)NC(=O)C.ClCCl;;94;24;1.09;1.41;1.38;1.49;1.38;1.37;1.41;1.09;1.38;118.48;117.78;122.54;118.5;118.65;120.16;119.65;117.78;118.28;122.33;0.3;178.6;178.54;0.5;178.49;0.64;52.7;2.59;2.58;2.39;2.38;23.31;61.96;35.28;144.98;171.09;34.37;59.61;58.63;61.01;23.33;0.27;-0.28;0.32;-0.83;-0.83;0.32;-0.08;-0.09;-0.28;0.27;-0.25;-0.02;1525.7;1384.93;1384.93;3229.56;3224.53;97.82;171.4;171.4;4.78;5.87;2;1;1;7.17;1.96;3.87;5.39;1.35;6.38;2;1;1;392.51;397.44;15.44;1.5;387.42;2.49;0.24;0.15;0.11;1.34;88.87;43.1;-0.5;0.15;-0.27;0.01;1734.2;49.45;203.32;182.53;21.95;1.31;161.2;5.15;2.29;0.5;0.43
130;R131;L2-11-S4;c1cc2c(c3c1op(oc1c3c3ccccc3cc1)N1CCCCCC1)cccc2.C(=C)(c1ccc(cc1)Cl)NC(=O)C.ClCCl;;94;24;1.09;1.41;1.38;1.49;1.38;1.37;1.41;1.09;1.38;118.48;117.78;122.54;118.5;118.65;120.16;119.65;117.78;118.28;122.33;0.3;178.6;178.54;0.5;178.49;0.64;52.7;2.59;2.58;2.39;2.38;23.31;61.96;35.28;144.98;171.09;34.37;59.61;58.63;61.01;23.33;0.27;-0.28;0.32;-0.83;-0.83;0.32;-0.08;-0.09;-0.28;0.27;-0.25;-0.02;1525.7;1384.93;1384.93;3229.56;3224.53;97.82;171.4;171.4;4.78;5.87;2;1;1;7.17;1.96;3.87;5.39;1.35;6.38;2;1;1;392.51;397.44;15.44;1.5;387.42;2.49;0.24;0.15;0.11;1.33;51.89;50.27;-0.36;-0.16;-0.32;0;1752.73;50.1;191.24;161.83;39.33;1.33;158.15;3.83;2.56;0.51;0.44
131;R132;L2-11-S60;c1cc2c(c3c1op(oc1c3c3ccccc3cc1)N1CCCCCC1)cccc2.C=C(NC(=O)C)c1ccc(cc1)OC.ClCCl;;92;24;1.09;1.41;1.38;1.49;1.38;1.38;1.41;1.09;1.38;118.39;117.11;122.43;119.56;119.03;119.15;120.4;118.08;118.53;122.76;0.34;177.43;175.45;0.84;178.68;0.02;53.18;2.57;2.59;2.38;2.4;23.23;60.42;35.76;137.65;154.21;37.77;58.46;9.27;62.4;23.34;0.28;-0.28;0.33;-0.83;-0.84;0.31;-0.08;-0.09;-0.28;0.28;-0.25;-0.02;1526.82;1255.72;1281.96;3238.86;3234.43;91.36;137.28;227.58;5.14;6.05;2;1;1;6.43;2.75;3.88;4.54;1.35;6.77;2;1;1;382.76;392.24;19.28;1.48;388.4;3.06;0.23;0.16;0.11;1.34;42.65;89.35;0.15;-0.5;-0.27;0.01;1733.89;52.63;203.37;182.54;21.95;1.31;161.2;5.17;2.3;0.5;0.43
132;R133;L2-11-S61;c1cc2c(c3c1op(oc1c3c3ccccc3cc1)N1CCCCCC1)cccc2.C(=C(\NC(=O)C)/c1ccccc1)\CC.ClCCl;;88;24;1.09;1.41;1.38;1.49;1.38;1.37;1.42;1.09;1.38;118.39;117.82;122.55;118.62;119.08;120.68;119.62;117.82;118.14;122.13;0.06;178.8;178.33;0.62;177.55;0.22;52.28;2.59;2.57;2.39;2.38;23.34;62.07;35.57;146.05;167.21;33.81;60.05;58.99;60.5;23.25;0.27;-0.28;0.32;-0.83;-0.83;0.33;-0.08;-0.09;-0.28;0.27;-0.25;-0.02;1521.67;1252.37;1252.37;3235.76;3237.19;99.89;154.52;154.52;4.27;4.58;2;1;1;8.84;1.47;3.89;4.93;1.35;7.63;2;1;1;408.26;420.03;15.68;1.51;413.46;2.65;0.24;0.11;0.09;1.34;60.87;46.82;-0.23;0.14;-0.26;0.01;1755.29;52.32;242.74;219.07;23.25;1.38;189.26;4.78;0.86;0.51;0.36
133;R134;L2-11-S62;c1cc2c(c3c1op(oc1c3c3ccccc3cc1)N1CCCCCC1)cccc2.C(=C(\NC(=O)C)/c1ccccc1)/CC.ClCCl;;1;24;1.09;1.41;1.38;1.49;1.38;1.37;1.42;1.09;1.38;118.39;117.82;122.55;118.62;119.08;120.68;119.62;117.82;118.14;122.13;0.06;178.8;178.33;0.62;177.55;0.22;52.28;2.59;2.57;2.39;2.38;23.34;62.07;35.57;146.05;167.21;33.81;60.05;58.99;60.5;23.25;0.27;-0.28;0.32;-0.83;-0.83;0.33;-0.08;-0.09;-0.28;0.27;-0.25;-0.02;1521.67;1252.37;1252.37;3235.76;3237.19;99.89;154.52;154.52;4.27;4.58;2;1;1;8.84;1.47;3.89;4.93;1.35;7.63;2;1;1;408.26;420.03;15.68;1.51;413.46;2.65;0.24;0.11;0.09;1.34;66.4;50.62;-0.25;0.14;-0.26;0.01;1756.08;12.36;241.02;218.75;22.35;1.37;189.26;4.71;0.85;0.48;0.33
134;R135;L2-11-S1;c1cc2c(c3c1op(oc1c3c3ccccc3cc1)N1CCCCCC1)cccc2.C=C(CC(=O)OC)C(=O)OC.ClCCl;;93;24;1.09;1.41;1.38;1.49;1.38;1.39;1.41;1.08;1.38;118.46;118.1;122.56;118.71;119.33;119.99;119.34;117.06;118.48;122.91;0.4;178.54;177.32;1.14;178.89;1.15;52.76;2.59;2.57;2.39;2.39;23.36;62.27;37.43;149.46;158.84;36.2;59.73;8.65;61.14;23.25;0.27;-0.28;0.31;-0.84;-0.83;0.32;-0.08;-0.08;-0.27;0.28;-0.25;-0.02;1523.02;1275.69;1247.14;3235.88;3234.4;79.29;202.64;119.74;3.12;2.8;2;1;1;8.9;1.35;6.62;9.03;1.35;5.92;2;1;1;431.56;429.21;21.93;1.57;416.46;1.55;0.24;0.09;0.08;1.34;42.3;87.39;0.15;-0.5;-0.26;-0.01;1734.78;47.04;250.47;233.86;22.08;1.36;211.26;5.17;1.68;0.24;0.21
135;R136;L2-12-S2;c1cc2c(c3c1op(oc1c3c3ccccc3cc1)N1CCOCC1)cccc2.C=C(NC(=O)C)C(=O)OC.ClCCl;;99;24;1.09;1.41;1.37;1.49;1.38;1.38;1.41;1.09;1.38;118.29;117.64;122.25;118.76;118.48;119.61;120.11;117.91;118.46;122.45;0.25;178.41;178.36;0.04;178.64;0.49;52.67;2.58;2.59;2.39;2.39;23.3;61.12;34.48;141.59;169.68;35.55;58.62;59.44;62.03;23.31;0.27;-0.28;0.32;-0.83;-0.83;0.32;-0.08;-0.09;-0.28;0.27;-0.25;-0.02;1521.61;1252;1280.81;3225.36;3233.88;104.79;45.37;141.12;5.43;10.07;2;1;1;7.75;2.01;3.87;4.65;1.35;7.56;2;1;1;392.82;402.68;15.6;1.49;399.43;2.59;0.24;0.13;0.1;1.28;15.53;-113.34;0.33;-0.48;-0.28;-0.01;1763.31;359.69;280.48;262.6;5.88;1.41;223.32;2.49;1.12;0.21;0.19
136;R137;L2-12-S59;c1cc2c(c3c1op(oc1c3c3ccccc3cc1)N1CCOCC1)cccc2.C(=C(\NC(=O)C)/C(=O)OC)\c1ccccc1.ClCCl;;98;24;1.89;1.42;1.4;1.49;1.38;1.39;1.42;1.89;1.38;121.25;116.69;124.35;120.56;120.86;118.68;118.77;116.82;121.3;125.99;6.99;167.89;169.07;2.4;168.33;6.93;55.55;3.05;3.06;2.4;2.4;401.91;54.13;35.71;172.72;171.5;33.26;62.02;62.41;55.54;403.72;1.89;-0.55;0.33;-0.83;-0.83;0.34;-0.08;-0.07;-0.56;1.89;-0.26;-0.03;1498.8;1272.18;1272.18;786.91;786.91;65.57;128.32;128.32;37.77;37.77;6.38;4.21;6.49;5.23;1.35;3.89;4.92;1.35;3.98;6.38;4.21;6.49;825.6;886.42;42.16;1.85;865.09;4.21;0.06;0.03;0.03;1.34;32.42;68.05;-0.05;-0.43;-0.25;0.01;1723.1;49.74;262.83;248.27;24.63;1.38;226.28;3.84;1.1;0.25;0.23