index;name;L-S;smiles;comment;%ee;T;BL32-1;BL1-6;BL6-34;BL5-12;BL12-11;BL33-11;BL11-16;BL16-31;BL6-5;BA32-1-6;BA1-6-34;BA1-6-5;BA6-5-12;BA5-12-11;BA12-11-33;BA5-6-34;BA33-11-16;BA11-16-31;BA12-11-16;DA32-1-6-34;DA32-1-6-5;DA1-6-5-12;DA5-12-11-33;DA12-11-16-31;DA33-11-16-31;DA6-5-12-11;NB32-34;NB33-31;NB1-34;NB33-16;NMR 32;NMR1;NMR6;NMR34;NMR33;NMR11;NMR12;NMR5;NMR16;NMR31;q32;q1;q6;q34;q33;q11;q12;q5;q16;q31;HOMO;LUMO;VF5-12;VF6-34;VF11-33;VF1-32;VF16-31;VI5-12;VI6-34;VI11-33;VI1-32;VI16-31;L1R1;B1R1;B5R1;L1R2;B1R2;B5R2;L1R3;B1R3;B5R3;L1R4;B1R4;B5R4;Area; Vol;PSA; Ovality;MW;dipolemoment;RCx;RCy;RCz;BL12-16S;NMR12-S;NMR16-S;q12-S;q16-S;HOMO-S;LUMO-S;VF12-16S;VI12-16S;Area-S; Vol-S;PSA-S; Ovality-S;MW-S;dipolemoment-S;RCx-S;RCy-S;RCz-S
316;R357;L5-3-S180;c1(cc2c(c3-c4c(c(cc5c4cccc5)[Si](c4ccccc4)(c4ccccc4)c4ccccc4)OP(=O)(Oc13)O)cccc2)[Si](c1ccccc1)(c1ccccc1)c1ccccc1.C(=N)(c1ccc(cc1O)c1ccccc1)c1ccccc1.c1ccccc1;;99;50;1.4;1.43;1.86;1.5;1.4;1.86;1.42;1.4;1.39;118.72;115.59;116.88;121.5;120.04;115.86;126.92;127.06;120.88;117.03;0.95;172.66;169.26;0.31;171.34;6.12;76.2;2.94;3.27;2.79;2.94;90.73;35.54;46.14;375.83;389.03;45.16;37.47;40.28;32.59;71.7;-0.56;0.29;-0.35;0.9;0.91;-0.36;-0.01;-0.03;0.3;-0.56;-0.25;-0.03;1095.76;1171.49;1164.96;1236.8;1257.87;6.03;320.99;144.9;204.5;131.21;6.23;1.69;4.25;7.12;2.38;5.84;7.12;2.38;5.84;6.23;1.69;4.25;782.75;861.63;33.9;1.79;822.92;4.19;0.06;0.04;0.04;1.33;61.66;47.91;-0.38;0;-0.31;-0.01;1738.29;229.01;150.24;125.17;46.99;1.24;129.12;10.36;3.09;1.18;0.88
317;R358;L5-3-S181;c1(cc2c(c3-c4c(c(cc5c4cccc5)[Si](c4ccccc4)(c4ccccc4)c4ccccc4)OP(=O)(Oc13)O)cccc2)[Si](c1ccccc1)(c1ccccc1)c1ccccc1.C(=N)(c1ccc(cc1O)F)c1ccccc1.c1ccccc1;;99;50;1.09;1.41;1.38;1.49;1.38;1.38;1.41;1.09;1.38;118.48;117.73;122.55;118.43;118.64;120.11;119.69;117.73;118.34;122.4;0.61;178.71;178.42;0.45;178.42;0.82;52.55;2.59;2.58;2.39;2.39;23.33;62.15;35.73;141.85;170.07;34.82;59.34;58.8;60.99;23.32;0.27;-0.28;0.32;-0.83;-0.83;0.32;-0.08;-0.09;-0.28;0.27;-0.25;-0.02;1524.66;1385.09;1385.09;3224.15;3227.2;96.85;174.22;174.22;4.58;3.67;2;1;1;7.74;2.01;3.86;4.57;1.35;6.83;2;1;1;384.37;393.64;23.33;1.48;401.4;1.02;0.24;0.13;0.1;1.34;88.87;43.1;-0.5;0.15;-0.27;0.01;1734.2;49.45;203.32;182.53;21.95;1.31;161.2;5.15;2.29;0.5;0.43
318;R359;L5-3-S182;c1(cc2c(c3-c4c(c(cc5c4cccc5)[Si](c4ccccc4)(c4ccccc4)c4ccccc4)OP(=O)(Oc13)O)cccc2)[Si](c1ccccc1)(c1ccccc1)c1ccccc1.C(=N)(c1cc(ccc1O)C)c1ccccc1.c1ccccc1;;88;50;1.09;1.41;1.38;1.49;1.38;1.37;1.41;1.09;1.38;118.47;117.77;122.55;118.5;118.63;120.18;119.65;117.77;118.3;122.3;0.64;178.79;178.7;0.71;178.28;0.65;52.59;2.59;2.58;2.39;2.39;23.35;62.15;35.66;140.62;171.02;34.78;59.36;58.71;60.88;23.38;0.27;-0.28;0.32;-0.83;-0.83;0.32;-0.08;-0.09;-0.28;0.27;-0.25;-0.02;1523.48;1386.47;1386.47;3224.64;3230.77;95.25;157.78;157.78;5.26;8.49;2;1;1;6.57;1.35;3.87;4.58;1.35;5.49;2;1;1;354.56;360.63;15.63;1.45;359.37;2.33;0.26;0.2;0.13;1.34;87.83;44.15;-0.49;0.14;-0.27;0;1734.31;52.87;218.94;196.14;21.97;1.34;195.65;3.63;2.11;0.28;0.25
319;R360;L5-3-S13;c1(cc2c(c3-c4c(c(cc5c4cccc5)[Si](c4ccccc4)(c4ccccc4)c4ccccc4)OP(=O)(Oc13)O)cccc2)[Si](c1ccccc1)(c1ccccc1)c1ccccc1.C(=N)(c1ccccc1)c1c(ccc(c1)c1ccccc1)O.c1ccccc1;;93;50;1.89;1.42;1.39;1.49;1.38;1.39;1.42;1.89;1.38;121.47;116.67;124.23;120.61;120.76;118.79;118.9;116.84;121.35;126.32;5.21;169.6;169.69;2.54;168.55;6.88;55.11;3.06;3.06;2.39;2.39;400.09;53.2;35.15;172.22;168.95;32.68;61.85;62.51;55.18;402.59;1.89;-0.55;0.34;-0.83;-0.83;0.34;-0.08;-0.08;-0.55;1.89;-0.26;-0.02;1500.07;1277.65;1277.65;787.23;787.23;52.93;94.94;94.94;28.57;28.57;6.38;4.21;6.49;5.23;1.35;3.89;4.92;1.35;3.98;6.38;4.21;6.49;822.06;885.7;40.55;1.84;865.09;3.54;0.06;0.03;0.03;1.27;7.39;-116.51;0.27;-0.62;-0.28;-0.05;1754.05;110.41;252.43;234.45;76.14;1.37;242.23;4.9;1.04;0.2;0.18
320;R361;L5-3-S183;c1(cc2c(c3-c4c(c(cc5c4cccc5)[Si](c4ccccc4)(c4ccccc4)c4ccccc4)OP(=O)(Oc13)O)cccc2)[Si](c1ccccc1)(c1ccccc1)c1ccccc1.C(=N)(c1cc(ccc1O)Br)c1ccccc1.c1ccccc1;;96;50;1.49;1.43;1.38;1.49;1.38;1.37;1.43;1.49;1.38;121.56;119.48;121.56;120.98;120.03;122.67;118.96;116.11;121.97;121.14;3.49;176.17;175.1;8.46;177.17;5.91;73.91;2.89;2.83;2.43;2.38;44.48;43.48;30.97;228.77;227.93;36.38;59.86;58.22;44.65;44.08;-0.06;-0.08;0.36;-0.81;-0.81;0.36;-0.09;-0.08;-0.07;-0.05;-0.25;-0.02;1050.05;1269.46;1269.46;1211.73;1211.73;61.95;241.46;241.46;98.16;98.16;6.33;1.62;4.37;7.48;1.52;6.53;7.48;1.52;6.53;6.33;1.62;4.37;823.83;917.16;6.67;1.8;862.99;1.12;0.05;0.04;0.03;1.35;84.32;31.77;-0.42;0.25;-0.28;-0.02;1701.47;663.38;266.71;246.58;41.99;1.4;233.27;3.65;0.69;0.32;0.25
321;R362;L5-3-S184;c1(cc2c(c3-c4c(c(cc5c4cccc5)[Si](c4ccccc4)(c4ccccc4)c4ccccc4)OP(=O)(Oc13)O)cccc2)[Si](c1ccccc1)(c1ccccc1)c1ccccc1.C(=N)(c1cc(ccc1O)OC)c1ccccc1.c1ccccc1;;90;50;1.89;1.42;1.39;1.49;1.38;1.39;1.42;1.89;1.38;121.47;116.67;124.23;120.61;120.76;118.79;118.9;116.84;121.35;126.32;5.21;169.6;169.69;2.54;168.55;6.88;55.11;3.06;3.06;2.39;2.39;400.09;53.2;35.15;172.22;168.95;32.68;61.85;62.51;55.18;402.59;1.89;-0.55;0.34;-0.83;-0.83;0.34;-0.08;-0.08;-0.55;1.89;-0.26;-0.02;1500.07;1277.65;1277.65;787.23;787.23;52.93;94.94;94.94;28.57;28.57;6.38;4.21;6.49;5.23;1.35;3.89;4.92;1.35;3.98;6.38;4.21;6.49;822.06;885.7;40.55;1.84;865.09;3.54;0.06;0.03;0.03;1.28;5.9;-106.15;0.28;-0.63;-0.25;0;1746.21;107.23;256.59;240.01;44.66;1.37;227.26;2.89;0.67;0.34;0.26
322;R363;L5-3-S185;c1(cc2c(c3-c4c(c(cc5c4cccc5)[Si](c4ccccc4)(c4ccccc4)c4ccccc4)OP(=O)(Oc13)O)cccc2)[Si](c1ccccc1)(c1ccccc1)c1ccccc1.C(=N)(c1cc(ccc1O)N(=O)=O)c1ccccc1.c1ccccc1;;99;50;1.49;1.43;1.38;1.49;1.38;1.37;1.43;1.49;1.38;121.56;119.48;121.56;120.98;120.03;122.67;118.96;116.11;121.97;121.14;3.49;176.17;175.1;8.46;177.17;5.91;73.91;2.89;2.83;2.43;2.38;44.48;43.48;30.97;228.77;227.93;36.38;59.86;58.22;44.65;44.08;-0.06;-0.08;0.36;-0.81;-0.81;0.36;-0.09;-0.08;-0.07;-0.05;-0.25;-0.02;1050.05;1269.46;1269.46;1211.73;1211.73;61.95;241.46;241.46;98.16;98.16;6.33;1.62;4.37;7.48;1.52;6.53;7.48;1.52;6.53;6.33;1.62;4.37;823.83;917.16;6.67;1.8;862.99;1.12;0.05;0.04;0.03;1.36;84.48;30.2;-0.41;0.25;-0.28;-0.03;1698.97;667.01;250.02;228.92;42.25;1.38;219.24;3.83;0.81;0.35;0.26
323;R364;L5-3-S186;c1(cc2c(c3-c4c(c(cc5c4cccc5)[Si](c4ccccc4)(c4ccccc4)c4ccccc4)OP(=O)(Oc13)O)cccc2)[Si](c1ccccc1)(c1ccccc1)c1ccccc1.C(=N)(c1cc(ccc1O)C(=O)c1ccccc1)c1ccccc1.c1ccccc1;;93;50;1.09;1.41;1.38;1.49;1.38;1.38;1.41;1.09;1.38;118.52;117.94;122.49;118.43;118.56;120.05;119.55;117.94;118.36;122.34;0.22;178.66;178.87;0.51;178.71;0.63;52.79;2.59;2.58;2.39;2.39;23.34;62.04;35.74;141.47;172.69;34.82;59.31;58.56;61.09;23.28;0.27;-0.28;0.32;-0.83;-0.83;0.32;-0.08;-0.09;-0.28;0.27;-0.25;-0.02;1526.26;1384.46;1384.46;3232.51;3223.89;97.91;163.72;163.72;6.73;5.36;2;1;1;9.98;2.57;3.87;5.29;1.35;9.75;2;1;1;434.28;449.7;15.51;1.53;447.47;2.21;0.23;0.08;0.07;1.34;87.83;44.15;-0.49;0.14;-0.27;0;1734.31;52.87;218.94;196.14;21.97;1.34;195.65;3.63;2.11;0.28;0.25
324;R365;L5-3-S187;c1(cc2c(c3-c4c(c(cc5c4cccc5)[Si](c4ccccc4)(c4ccccc4)c4ccccc4)OP(=O)(Oc13)O)cccc2)[Si](c1ccccc1)(c1ccccc1)c1ccccc1.C(=N)(c1ccc(cc1O)C)c1ccc(cc1)Cl.c1ccccc1;;96;50;1.08;1.41;1.37;1.49;1.38;1.38;1.41;1.08;1.38;117.99;116.58;122.18;120.17;119.61;119.58;120.9;117.56;118.27;122.86;5.49;178.81;175.72;4.81;178.11;1.97;51.55;2.55;2.58;2.37;2.39;23.09;59.21;34.83;147.65;166.03;36.09;57.55;61.66;62.6;23.63;0.27;-0.27;0.34;-0.83;-0.82;0.31;-0.07;-0.09;-0.28;0.27;-0.25;-0.01;1522.89;1250.55;1278.28;3237.53;3224.41;96.98;41.69;254.04;2.91;4.9;2;1;1;10.93;3.97;8.27;11.84;3.61;8.55;2;1;1;648.77;713.86;15.01;1.68;695.74;2.38;0.08;0.05;0.04;1.31;23.18;-90.11;0.25;-0.48;-0.26;0.04;1663.45;25.31;177.03;162.32;7.03;1.23;143.19;2.17;2.8;0.86;0.66
325;R366;L5-3-S188;c1(cc2c(c3-c4c(c(cc5c4cccc5)[Si](c4ccccc4)(c4ccccc4)c4ccccc4)OP(=O)(Oc13)O)cccc2)[Si](c1ccccc1)(c1ccccc1)c1ccccc1.C(=N)(c1cc(ccc1O)C)c1ccc(cc1)c1ccccc1.c1ccccc1;;98;50;1.89;1.42;1.4;1.49;1.38;1.39;1.42;1.89;1.38;121.25;116.69;124.35;120.56;120.86;118.68;118.77;116.82;121.3;125.99;6.99;167.89;169.07;2.4;168.33;6.93;55.55;3.05;3.06;2.4;2.4;401.91;54.13;35.71;172.72;171.5;33.26;62.02;62.41;55.54;403.72;1.89;-0.55;0.33;-0.83;-0.83;0.34;-0.08;-0.07;-0.56;1.89;-0.26;-0.03;1498.8;1272.18;1272.18;786.91;786.91;65.57;128.32;128.32;37.77;37.77;6.38;4.21;6.49;5.23;1.35;3.89;4.92;1.35;3.98;6.38;4.21;6.49;825.6;886.42;42.16;1.85;865.09;4.21;0.06;0.03;0.03;1.34;31.2;67.2;-0.05;-0.43;-0.25;0.01;1713.78;34.51;351.32;336.23;11.57;1.5;298.46;2.06;0.42;0.21;0.17
326;R367;L5-3-S189;c1(cc2c(c3-c4c(c(cc5c4cccc5)[Si](c4ccccc4)(c4ccccc4)c4ccccc4)OP(=O)(Oc13)O)cccc2)[Si](c1ccccc1)(c1ccccc1)c1ccccc1.C(=N)(c1cc(ccc1O)Br)c1cccc(c1)C.c1ccccc1;;93;50;1.09;1.43;1.85;1.5;1.39;1.86;1.42;1.09;1.39;119.37;116.92;118.89;121.57;120;117.79;123.01;122.67;119.54;119.51;8.88;176.85;173.4;2.68;179.27;2.68;79.94;2.89;3.03;2.8;2.89;22.91;32.27;21.11;279.74;297.99;19.05;17.47;20.3;34.65;23.92;0.27;-0.25;-0.33;0.9;0.91;-0.33;-0.02;-0.04;-0.25;0.27;-0.25;-0.02;1228.08;1197.56;1173.07;3219.05;3224.22;0.88;1.52;1.48;13.64;3.74;2;1;1;7.12;2.38;5.84;7.12;2.38;5.84;2;1;1;597.92;662.43;0;1.63;622.69;3.09;0.09;0.06;0.06;1.34;12.66;69.33;0.08;-0.41;-0.32;0;1743.04;276.91;145.07;119.03;52.31;1.24;116.12;7.73;4.71;1.06;0.91
327;R368;L5-3-S190;c1(cc2c(c3-c4c(c(cc5c4cccc5)[Si](c4ccccc4)(c4ccccc4)c4ccccc4)OP(=O)(Oc13)O)cccc2)[Si](c1ccccc1)(c1ccccc1)c1ccccc1.C(=N)(c1ccccc1O)c1cc2c(cc1)cccc2.c1ccccc1;;99;50;1.89;1.42;1.39;1.49;1.38;1.39;1.42;1.89;1.38;121.47;116.67;124.23;120.61;120.76;118.79;118.9;116.84;121.35;126.32;5.21;169.6;169.69;2.54;168.55;6.88;55.11;3.06;3.06;2.39;2.39;400.09;53.2;35.15;172.22;168.95;32.68;61.85;62.51;55.18;402.59;1.89;-0.55;0.34;-0.83;-0.83;0.34;-0.08;-0.08;-0.55;1.89;-0.26;-0.02;1500.07;1277.65;1277.65;787.23;787.23;52.93;94.94;94.94;28.57;28.57;6.38;4.21;6.49;5.23;1.35;3.89;4.92;1.35;3.98;6.38;4.21;6.49;822.06;885.7;40.55;1.84;865.09;3.54;0.06;0.03;0.03;1.28;6.83;-104.72;0.28;-0.63;-0.28;0;1746.85;171.21;232.79;217.66;37.49;1.33;215.23;2.27;1.1;0.3;0.26
328;R369;L2'-1-S1;CN(C)P1Oc2ccc3c(CCCC3)c2c4c(CCCC5)c5ccc4O1.C=C(C(OC)=O)CC(OC)=O.ClCCl;out of bag;90;24;1.09;1.09;1.39;1.38;1.4;1.49;1.4;1.38;1.39;119.15;119.04;122.14;117.79;117.66;119.57;118.82;118.88;119.25;121.55;0.49;179.2;179.52;2.24;178.65;1.57;54.99;2.6;2.6;2.39;2.39;23.91;66.71;36.66;178.61;149.04;36.62;52.67;53.51;64.62;23.94;0.27;-0.29;0.31;-0.83;-0.83;0.31;-0.09;-0.09;-0.29;0.27;-0.27;0.01;1532.1;1283.68;1311.43;3198.18;3207.12;59.37;95.76;159.1;11.63;9.96;2;1;1;7.12;2.38;5.84;7.12;2.38;5.84;2;1;1;372.42;377.77;15.71;1.47;367.43;2.67;0.25;0.19;0.12;1.33;49.8;52.44;-0.15;-0.36;-0.33;0;1749.08;25.91;191.37;161.86;39.51;1.33;158.15;1.4;3.49;0.46;0.42
329;R370;L2'-2-S1;CCN(CC)P1Oc2ccc3c(CCCC3)c2c4c(CCCC5)c5ccc4O1.C=C(C(OC)=O)CC(OC)=O.ClCCl;out of bag;81;24;1.09;1.09;1.39;1.38;1.4;1.49;1.41;1.38;1.39;119.05;118.78;122.16;117.99;117.99;119.38;119.05;118.56;118.94;122.05;0.37;179.39;179.99;0.82;178.9;1.01;53.01;2.59;2.59;2.38;2.38;23.89;66.25;35.7;178.9;152.28;35.73;54.82;54.28;65.07;23.91;0.27;-0.29;0.31;-0.83;-0.83;0.31;-0.09;-0.08;-0.29;0.27;-0.27;0.01;1532.93;1289.91;1317.37;3192.56;3202.97;133.23;57.29;127.68;11.93;7.42;6.4;1.53;5.61;5.23;1.35;3.89;4.92;1.35;3.98;6.4;1.53;5.61;406.22;414.45;15.45;1.51;395.48;2.88;0.24;0.14;0.1;1.33;49.8;52.44;-0.15;-0.36;-0.33;0;1749.08;25.91;191.37;161.86;39.51;1.33;158.15;1.4;3.49;0.46;0.42
330;R371;L2'-3-S1;c12c(CCCC2)c3c(OP(N4CCCCC4)Oc5ccc6c(CCCC6)c53)cc1.C=C(C(OC)=O)CC(OC)=O.ClCCl;out of bag;99;24;1.09;1.09;1.39;1.38;1.4;1.49;1.41;1.38;1.39;119.04;118.8;122.13;117.92;117.93;119.4;119.07;118.56;118.96;122.04;0.44;179.46;179.93;0.72;178.81;0.95;52.87;2.59;2.59;2.38;2.38;23.9;66.16;36.02;177.3;148.3;35.75;54.62;54.24;65.07;23.84;0.27;-0.29;0.31;-0.83;-0.83;0.31;-0.09;-0.08;-0.29;0.27;-0.27;0.01;1532.63;1295.85;1317.71;3217.52;3223.04;132.88;80.23;128.18;9.26;3.78;2;1;1;7.75;2.01;3.87;4.65;1.35;7.56;2;1;1;406.23;419.65;15.58;1.5;407.49;2.91;0.24;0.13;0.09;1.34;16.27;70.84;0.11;-0.42;-0.32;0;1728.23;354.9;187.54;159.32;53.11;1.32;158.15;7.23;2;0.55;0.46
331;R372;L2'-4-S1;c12c(CCCC2)c3c(OP(N4CCCCCC4)Oc5ccc6c(CCCC6)c53)cc1.C=C(C(OC)=O)CC(OC)=O.ClCCl;out of bag;90;24;1.09;1.09;1.39;1.38;1.4;1.49;1.41;1.38;1.39;119.01;118.82;122.15;118.18;118.13;119.68;119.02;118.36;118.82;121.95;0.31;179.3;179.27;1.92;178.48;0.47;52.68;2.59;2.58;2.38;2.38;23.89;66.27;35.81;177.65;149.89;35.02;54.59;54.34;64.78;23.78;0.27;-0.29;0.31;-0.83;-0.83;0.31;-0.09;-0.08;-0.29;0.27;-0.27;0.01;1532.13;1291.08;1318.66;3222.41;3234.37;143.24;79.12;138.2;5.62;5.53;2;1;1;8.84;1.47;3.89;4.93;1.35;7.63;2;1;1;421.59;436.92;15.56;1.51;421.52;2.94;0.24;0.11;0.08;1.33;49.8;52.44;-0.15;-0.36;-0.33;0;1749.08;25.91;191.37;161.86;39.51;1.33;158.15;1.4;3.49;0.46;0.42
332;R373;L2'-5-S1;c12c(CCCC2)c3c(OP(N4CCOCC4)Oc5ccc6c(CCCC6)c53)cc1.C=C(C(OC)=O)CC(OC)=O.ClCCl;out of bag;98;24;1.09;1.09;1.39;1.38;1.4;1.49;1.4;1.38;1.39;119.09;118.92;122.13;117.91;117.94;119.36;118.94;118.57;118.97;122.07;0.37;179.41;179.56;1.1;179.18;1.18;52.99;2.6;2.59;2.39;2.38;23.97;66.37;36.17;179.91;148.36;36.64;54.72;54.48;65.24;23.9;0.27;-0.29;0.31;-0.83;-0.83;0.31;-0.09;-0.08;-0.29;0.27;-0.27;0.01;1535.98;1289.55;1316.8;3218.68;3220.31;126.46;90.01;125.03;5.03;4.67;6.38;4.21;6.49;5.23;1.35;3.89;4.92;1.35;3.98;6.38;4.21;6.49;448.02;466.74;15.42;1.54;455.54;3.13;0.23;0.08;0.07;1.34;16.27;70.84;0.11;-0.42;-0.32;0;1728.23;354.9;187.54;159.32;53.11;1.32;158.15;7.23;2;0.55;0.46
333;R374;L2'-6-S1;c12c(CCCC2)c3c(OP(N4CCN(C5=CC=CC=C5)CC4)Oc6ccc7c(CCCC7)c63)cc1.C=C(C(OC)=O)CC(OC)=O.ClCCl;out of bag;99;24;1.09;1.09;1.39;1.38;1.4;1.49;1.4;1.38;1.39;119.05;118.78;122.18;117.93;117.95;119.4;119.04;118.5;118.98;122.1;0.44;179.45;179.91;0.71;178.83;0.9;52.82;2.59;2.59;2.38;2.38;23.91;66.21;36.29;177.74;149.17;36.02;54.71;54.38;65.04;23.82;0.27;-0.29;0.31;-0.83;-0.83;0.31;-0.09;-0.08;-0.29;0.27;-0.27;0.01;1532.04;1295.06;1317.36;3219.78;3223.94;128.49;101.54;122.02;9.72;3.66;6.38;4.21;6.49;5.23;1.35;3.89;4.92;1.35;3.98;6.38;4.21;6.49;398.19;410.66;23.39;1.49;409.47;2.62;0.24;0.13;0.09;1.34;16.27;70.84;0.11;-0.42;-0.32;0;1728.23;354.9;187.54;159.32;53.11;1.32;158.15;7.23;2;0.55;0.46
334;R375;L2'-7-S1;c12c(CCCC2)c3c(OP(N4CC(C=CC=C5)=C5CC4)Oc6ccc7c(CCCC7)c63)cc1.C=C(C(OC)=O)CC(OC)=O.ClCCl;out of bag;95;24;1.09;1.09;1.39;1.38;1.4;1.49;1.4;1.38;1.39;119.15;119.04;122.14;117.79;117.66;119.57;118.82;118.88;119.25;121.55;0.49;179.2;179.52;2.24;178.65;1.57;54.99;2.6;2.6;2.39;2.39;23.91;66.71;36.66;178.61;149.04;36.62;52.67;53.51;64.62;23.94;0.27;-0.29;0.31;-0.83;-0.83;0.31;-0.09;-0.09;-0.29;0.27;-0.27;0.01;1532.1;1283.68;1311.43;3198.18;3207.12;59.37;95.76;159.1;11.63;9.96;2;1;1;7.12;2.38;5.84;7.12;2.38;5.84;2;1;1;372.42;377.77;15.71;1.47;367.43;2.67;0.25;0.19;0.12;1.34;16.27;70.84;0.11;-0.42;-0.32;0;1728.23;354.9;187.54;159.32;53.11;1.32;158.15;7.23;2;0.55;0.46
335;R376;L2'-1-S2;CN(C)P1Oc2ccc3c(CCCC3)c2c4c(CCCC5)c5ccc4O1.C=C(C(OC)=O)NC(C)=O.ClCCl;out of bag;94;24;1.09;1.09;1.39;1.38;1.4;1.49;1.4;1.38;1.39;119.15;119.04;122.14;117.79;117.66;119.57;118.82;118.88;119.25;121.55;0.49;179.2;179.52;2.24;178.65;1.57;54.99;2.6;2.6;2.39;2.39;23.91;66.71;36.66;178.61;149.04;36.62;52.67;53.51;64.62;23.94;0.27;-0.29;0.31;-0.83;-0.83;0.31;-0.09;-0.09;-0.29;0.27;-0.27;0.01;1532.1;1283.68;1311.43;3198.18;3207.12;59.37;95.76;159.1;11.63;9.96;2;1;1;7.12;2.38;5.84;7.12;2.38;5.84;2;1;1;372.42;377.77;15.71;1.47;367.43;2.67;0.25;0.19;0.12;1.34;53.58;79.9;0.03;-0.44;-0.29;0;1740.59;88.62;175.48;146.85;41.41;1.3;143.14;3.49;3.39;0.69;0.58
336;R377;L2'-2-S2;CCN(CC)P1Oc2ccc3c(CCCC3)c2c4c(CCCC5)c5ccc4O1.C=C(C(OC)=O)NC(C)=O.ClCCl;out of bag;84;24;1.09;1.09;1.39;1.38;1.4;1.49;1.41;1.38;1.39;119.05;118.78;122.16;117.99;117.99;119.38;119.05;118.56;118.94;122.05;0.37;179.39;179.99;0.82;178.9;1.01;53.01;2.59;2.59;2.38;2.38;23.89;66.25;35.7;178.9;152.28;35.73;54.82;54.28;65.07;23.91;0.27;-0.29;0.31;-0.83;-0.83;0.31;-0.09;-0.08;-0.29;0.27;-0.27;0.01;1532.93;1289.91;1317.37;3192.56;3202.97;133.23;57.29;127.68;11.93;7.42;6.4;1.53;5.61;5.23;1.35;3.89;4.92;1.35;3.98;6.4;1.53;5.61;406.22;414.45;15.45;1.51;395.48;2.88;0.24;0.14;0.1;1.34;53.58;79.9;0.03;-0.44;-0.29;0;1740.59;88.62;175.48;146.85;41.41;1.3;143.14;3.49;3.39;0.69;0.58
337;R378;L2'-3-S2;c12c(CCCC2)c3c(OP(N4CCCCC4)Oc5ccc6c(CCCC6)c53)cc1.C=C(C(OC)=O)NC(C)=O.ClCCl;out of bag;97;24;1.09;1.09;1.39;1.38;1.4;1.49;1.41;1.38;1.39;119.04;118.8;122.13;117.92;117.93;119.4;119.07;118.56;118.96;122.04;0.44;179.46;179.93;0.72;178.81;0.95;52.87;2.59;2.59;2.38;2.38;23.9;66.16;36.02;177.3;148.3;35.75;54.62;54.24;65.07;23.84;0.27;-0.29;0.31;-0.83;-0.83;0.31;-0.09;-0.08;-0.29;0.27;-0.27;0.01;1532.63;1295.85;1317.71;3217.52;3223.04;132.88;80.23;128.18;9.26;3.78;2;1;1;7.75;2.01;3.87;4.65;1.35;7.56;2;1;1;406.23;419.65;15.58;1.5;407.49;2.91;0.24;0.13;0.09;1.34;53.58;79.9;0.03;-0.44;-0.29;0;1740.59;88.62;175.48;146.85;41.41;1.3;143.14;3.49;3.39;0.69;0.58
338;R379;L2'-4-S2;c12c(CCCC2)c3c(OP(N4CCCCCC4)Oc5ccc6c(CCCC6)c53)cc1.C=C(C(OC)=O)NC(C)=O.ClCCl;out of bag;87;24;1.09;1.09;1.39;1.38;1.4;1.49;1.41;1.38;1.39;119.01;118.82;122.15;118.18;118.13;119.68;119.02;118.36;118.82;121.95;0.31;179.3;179.27;1.92;178.48;0.47;52.68;2.59;2.58;2.38;2.38;23.89;66.27;35.81;177.65;149.89;35.02;54.59;54.34;64.78;23.78;0.27;-0.29;0.31;-0.83;-0.83;0.31;-0.09;-0.08;-0.29;0.27;-0.27;0.01;1532.13;1291.08;1318.66;3222.41;3234.37;143.24;79.12;138.2;5.62;5.53;2;1;1;8.84;1.47;3.89;4.93;1.35;7.63;2;1;1;421.59;436.92;15.56;1.51;421.52;2.94;0.24;0.11;0.08;1.34;53.58;79.9;0.03;-0.44;-0.29;0;1740.59;88.62;175.48;146.85;41.41;1.3;143.14;3.49;3.39;0.69;0.58
339;R380;L2'-5-S2;c12c(CCCC2)c3c(OP(N4CCOCC4)Oc5ccc6c(CCCC6)c53)cc1.C=C(C(OC)=O)NC(C)=O.ClCCl;out of bag;95;24;1.09;1.09;1.39;1.38;1.4;1.49;1.4;1.38;1.39;119.05;118.78;122.18;117.93;117.95;119.4;119.04;118.5;118.98;122.1;0.44;179.45;179.91;0.71;178.83;0.9;52.82;2.59;2.59;2.38;2.38;23.91;66.21;36.29;177.74;149.17;36.02;54.71;54.38;65.04;23.82;0.27;-0.29;0.31;-0.83;-0.83;0.31;-0.09;-0.08;-0.29;0.27;-0.27;0.01;1532.04;1295.06;1317.36;3219.78;3223.94;128.49;101.54;122.02;9.72;3.66;6.38;4.21;6.49;5.23;1.35;3.89;4.92;1.35;3.98;6.38;4.21;6.49;398.19;410.66;23.39;1.49;409.47;2.62;0.24;0.13;0.09;1.34;53.58;79.9;0.03;-0.44;-0.29;0;1740.59;88.62;175.48;146.85;41.41;1.3;143.14;3.49;3.39;0.69;0.58
340;R381;L2'-6-S2;c12c(CCCC2)c3c(OP(N4CCN(C5=CC=CC=C5)CC4)Oc6ccc7c(CCCC7)c63)cc1.C=C(C(OC)=O)NC(C)=O.ClCCl;out of bag;96;24;1.09;1.09;1.39;1.38;1.4;1.49;1.41;1.38;1.39;119.01;118.82;122.15;118.18;118.13;119.68;119.02;118.36;118.82;121.95;0.31;179.3;179.27;1.92;178.48;0.47;52.68;2.59;2.58;2.38;2.38;23.89;66.27;35.81;177.65;149.89;35.02;54.59;54.34;64.78;23.78;0.27;-0.29;0.31;-0.83;-0.83;0.31;-0.09;-0.08;-0.29;0.27;-0.27;0.01;1532.13;1291.08;1318.66;3222.41;3234.37;143.24;79.12;138.2;5.62;5.53;2;1;1;8.84;1.47;3.89;4.93;1.35;7.63;2;1;1;421.59;436.92;15.56;1.51;421.52;2.94;0.24;0.11;0.08;1.34;16.27;70.84;0.11;-0.42;-0.32;0;1728.23;354.9;187.54;159.32;53.11;1.32;158.15;7.23;2;0.55;0.46
341;R382;L2'-7-S2;c12c(CCCC2)c3c(OP(N4CC(C=CC=C5)=C5CC4)Oc6ccc7c(CCCC7)c63)cc1.C=C(C(OC)=O)NC(C)=O.ClCCl;out of bag;96;24;1.09;1.09;1.39;1.38;1.4;1.49;1.4;1.38;1.39;119.09;118.96;122.12;117.97;118;119.43;118.92;118.51;118.92;122.06;0.42;179.4;179.28;1.58;179.03;1.05;52.94;2.6;2.59;2.39;2.38;23.85;66.2;36.15;176.77;149.44;36.41;54.88;54.26;65.06;23.95;0.27;-0.29;0.31;-0.83;-0.83;0.31;-0.09;-0.08;-0.29;0.27;-0.25;0.01;1535.32;1294.45;1317.22;3223.17;3228.46;131.07;98.72;117.55;4.07;4.27;2;1;1;7.74;2.01;3.86;4.57;1.35;6.83;2;1;1;480.04;497.8;17.61;1.58;484.58;2.53;0.2;0.06;0.05;1.34;53.58;79.9;0.03;-0.44;-0.29;0;1740.59;88.62;175.48;146.85;41.41;1.3;143.14;3.49;3.39;0.69;0.58