index;name;L-S;smiles;comment;%ee;T;BL32-1;BL1-6;BL6-34;BL5-12;BL12-11;BL33-11;BL11-16;BL16-31;BL6-5;BA32-1-6;BA1-6-34;BA1-6-5;BA6-5-12;BA5-12-11;BA12-11-33;BA5-6-34;BA33-11-16;BA11-16-31;BA12-11-16;DA32-1-6-34;DA32-1-6-5;DA1-6-5-12;DA5-12-11-33;DA12-11-16-31;DA33-11-16-31;DA6-5-12-11;NB32-34;NB33-31;NB1-34;NB33-16;NMR 32;NMR1;NMR6;NMR34;NMR33;NMR11;NMR12;NMR5;NMR16;NMR31;q32;q1;q6;q34;q33;q11;q12;q5;q16;q31;HOMO;LUMO;VF5-12;VF6-34;VF11-33;VF1-32;VF16-31;VI5-12;VI6-34;VI11-33;VI1-32;VI16-31;L1R1;B1R1;B5R1;L1R2;B1R2;B5R2;L1R3;B1R3;B5R3;L1R4;B1R4;B5R4;Area; Vol;PSA; Ovality;MW;dipolemoment;RCx;RCy;RCz;BL12-16S;NMR12-S;NMR16-S;q12-S;q16-S;HOMO-S;LUMO-S;VF12-16S;VI12-16S;Area-S; Vol-S;PSA-S; Ovality-S;MW-S;dipolemoment-S;RCx-S;RCy-S;RCz-S
28;R29;L1-11-S5;c1cc2c(c3c1op(oc1c3c3ccccc3cc1)OCC(C)(C)C)cccc2.C(=C)(c1cc2c(cc1)cccc2)NC(=O)C.ClCCl;;93.7;30;1.09;1.41;1.38;1.49;1.38;1.38;1.41;1.09;1.38;118.51;118.05;122.66;118.49;119.08;120.12;119.27;117.17;118.55;122.67;0.13;178.63;177.91;0.37;177.75;0.01;52.5;2.59;2.58;2.39;2.39;23.29;62.32;37.53;151.32;149.31;36.7;59.44;8.68;61.25;23.11;0.27;-0.28;0.31;-0.83;-0.83;0.32;-0.08;-0.08;-0.28;0.27;-0.25;-0.02;1522.29;1278.2;1248.94;3228.63;3224.95;94.95;171.4;119.27;2.72;3.85;2;1;1;8.46;1.79;4.22;7.93;1.35;6.29;2;1;1;410.25;410.6;22.42;1.54;402.43;0.95;0.25;0.12;0.09;1.34;42.3;87.39;0.15;-0.5;-0.26;-0.01;1734.78;47.04;250.47;233.86;22.08;1.36;211.26;5.17;1.68;0.24;0.21
29;R30;L1-12-S5;c1cc2c(c3c1op(oc1c3c3ccccc3cc1)O[C@H](CC)C)cccc2.C(=C)(c1cc2c(cc1)cccc2)NC(=O)C.ClCCl;;90.6;30;1.09;1.41;1.38;1.49;1.38;1.38;1.41;1.09;1.38;118.39;117.11;122.43;119.56;119.03;119.15;120.4;118.08;118.53;122.76;0.34;177.43;175.45;0.84;178.68;0.02;53.18;2.57;2.59;2.38;2.4;23.23;60.42;35.76;137.65;154.21;37.77;58.46;9.27;62.4;23.34;0.28;-0.28;0.33;-0.83;-0.84;0.31;-0.08;-0.09;-0.28;0.28;-0.25;-0.02;1526.82;1255.72;1281.96;3238.86;3234.43;91.36;137.28;227.58;5.14;6.05;2;1;1;6.43;2.75;3.88;4.54;1.35;6.77;2;1;1;382.76;392.24;19.28;1.48;388.4;3.06;0.23;0.16;0.11;1.34;42.3;87.39;0.15;-0.5;-0.26;-0.01;1734.78;47.04;250.47;233.86;22.08;1.36;211.26;5.17;1.68;0.24;0.21
30;R31;L1-13-S5;c1cc2c(c3c1op(oc1c3c3ccccc3cc1)O[C@H](CC)C)cccc2.C(=C)(c1cc2c(cc1)cccc2)NC(=O)C.ClCCl;;93.4;30;1.49;1.43;1.38;1.49;1.38;1.36;1.44;1.49;1.38;120.02;118.38;121.94;120.1;120.23;123.64;119.54;114.79;122.14;121.49;6.16;178.26;175.58;5.46;173.14;9.92;79.75;2.83;2.81;2.41;2.36;43.03;42.76;29.13;235.07;222.47;35.5;62.22;57.72;48.74;44;-0.06;-0.08;0.37;-0.81;-0.81;0.37;-0.1;-0.08;-0.07;-0.06;-0.25;-0.01;1113.68;1285;1285;1337.08;1337.08;3.74;98.12;98.12;17.66;17.66;6.36;1.5;3.15;7.48;1.52;6.53;7.48;1.52;6.53;6.36;1.5;3.15;762.46;845.38;6.56;1.76;806.88;1.18;0.06;0.04;0.04;1.35;50.45;59.59;-0.18;0.04;-0.27;-0.03;1748.05;114.53;255.57;234.09;44.55;1.39;237.23;2.41;0.88;0.24;0.2
31;R32;L1-14-S6;c1cc2c(c3c1op(oc1c3c3ccccc3cc1)O[C@@H](C)c1ccccc1)cccc2.C(=C\C)(/c1ccccc1)\NC(=O)C.ClCCl;;76.2;30;1.09;1.41;1.38;1.49;1.38;1.38;1.41;1.09;1.38;118.41;116.44;122.46;120.07;119.36;118.82;120.98;118.25;118.56;122.93;0.01;175.98;171.73;0.4;178.82;0.29;53.94;2.56;2.6;2.38;2.4;24.17;60.41;37.27;156.22;145.93;38.48;58.37;0.91;62.23;23.19;0.27;-0.27;0.33;-0.84;-0.83;0.31;-0.08;-0.08;-0.28;0.28;-0.25;-0.02;1522.83;1243.98;1277.75;3226.17;3229.65;87.56;25.47;159.85;6.24;3.46;2;1;1;7.43;1.35;7.03;5.43;1.35;6.27;2;1;1;416.63;438.08;21.3;1.49;436.45;2.07;0.22;0.12;0.09;1.34;49.69;64.49;0.13;-0.21;-0.26;0.01;1761.24;13.61;221.61;200.46;22.64;1.34;175.23;4.24;1.48;0.49;0.39
32;R33;L1-17-S1;c1cc2c(c3c1op(oc1c3c3ccccc3cc1)O[C@H]1[C@@H]3[C@@H](OC1)[C@@H](CO3)C)cccc2.C=C(CC(=O)OC)C(=O)OC.ClCCl;;97.8;24;1.08;1.41;1.38;1.49;1.38;1.38;1.41;1.09;1.38;118.46;116.74;122.8;119.48;119.08;119.36;120.45;117.82;118.56;122.82;1.32;179.79;177.11;0.8;178.78;0.34;52.66;2.57;2.59;2.38;2.39;23.16;59.05;35.12;144.09;156.18;37.55;58.86;0.98;62.27;23.35;0.28;-0.27;0.32;-0.83;-0.84;0.31;-0.08;-0.08;-0.28;0.28;-0.25;-0.02;1522.23;1243.26;1274.86;3245.64;3233.37;79.81;140.52;225.73;0.71;4.04;2;1;1;7.6;1.61;6.98;5.93;1.35;7.23;2;1;1;430.13;450.17;40.44;1.51;474.45;5.03;0.2;0.1;0.08;1.33;49.8;52.44;-0.15;-0.36;-0.33;0;1749.08;25.91;191.37;161.86;39.51;1.33;158.15;1.4;3.49;0.46;0.42
33;R34;L1-17-S1;c1cc2c(c3c1op(oc1c3c3ccccc3cc1)O[C@H]1[C@@H]3[C@@H](OC1)[C@@H](CO3)C)cccc2.C=C(CC(=O)OC)C(=O)OC.ClCCl;;95.2;24;1.09;1.41;1.38;1.49;1.38;1.38;1.41;1.09;1.38;118.51;117.89;122.7;118.81;119.04;120.52;119.39;116.78;118.35;122.69;0.55;178.89;179.12;2.6;177.02;1.76;52.85;2.59;2.57;2.39;2.38;23.26;62.21;37.08;158.87;138.96;35.77;60.16;9.05;61.44;23.23;0.28;-0.28;0.32;-0.84;-0.83;0.32;-0.08;-0.08;-0.28;0.28;-0.25;-0.02;1525.74;1278.59;1251.45;3230.74;3249.84;82.62;114.07;133.33;2.87;2.63;2;1;1;4.45;1.35;7.67;8.68;1.47;5.87;2;1;1;469.42;487.28;20.08;1.57;470.55;3.24;0.2;0.09;0.08;1.33;49.8;52.44;-0.15;-0.36;-0.33;0;1749.08;25.91;191.37;161.86;39.51;1.33;158.15;1.4;3.49;0.46;0.42
34;R35;L1-18-S1;c1cc2c(c3c1op(oc1c3c3ccccc3cc1)O[C@H](C)c1ccccc1)cccc2.C=C(CC(=O)OC)C(=O)OC.ClCCl;;98.2;24;1.09;1.41;1.38;1.49;1.38;1.38;1.41;1.09;1.38;118.51;116.98;122.82;119.1;118.74;119.48;120.19;117.79;118.55;122.73;0.18;178.77;178.18;0.23;178.79;0.02;52.68;2.57;2.59;2.38;2.39;24.18;61.25;35.95;140.38;161.51;37.09;58.85;0.3;62.23;23.21;0.28;-0.28;0.32;-0.83;-0.84;0.31;-0.08;-0.08;-0.28;0.28;-0.25;-0.02;1521.65;1246.64;1276.1;3225.14;3211.38;84.21;145.66;212.34;2.91;2.64;2;1;1;4.77;1.35;9.04;5.45;1.35;8.08;2;1;1;425.38;439.15;20.6;1.52;436.45;3.15;0.24;0.1;0.08;1.33;49.8;52.44;-0.15;-0.36;-0.33;0;1749.08;25.91;191.37;161.86;39.51;1.33;158.15;1.4;3.49;0.46;0.42
35;R36;L1-14-S1;c1cc2c(c3c1op(oc1c3c3ccccc3cc1)O[C@@H](C)c1ccccc1)cccc2.C=C(CC(=O)OC)C(=O)OC.ClCCl;;99.6;24;1.09;1.41;1.38;1.49;1.38;1.38;1.41;1.09;1.38;118.41;116.44;122.46;120.07;119.36;118.82;120.98;118.25;118.56;122.93;0.01;175.98;171.73;0.4;178.82;0.29;53.94;2.56;2.6;2.38;2.4;24.17;60.41;37.27;156.22;145.93;38.48;58.37;0.91;62.23;23.19;0.27;-0.27;0.33;-0.84;-0.83;0.31;-0.08;-0.08;-0.28;0.28;-0.25;-0.02;1522.83;1243.98;1277.75;3226.17;3229.65;87.56;25.47;159.85;6.24;3.46;2;1;1;7.43;1.35;7.03;5.43;1.35;6.27;2;1;1;416.63;438.08;21.3;1.49;436.45;2.07;0.22;0.12;0.09;1.33;49.8;52.44;-0.15;-0.36;-0.33;0;1749.08;25.91;191.37;161.86;39.51;1.33;158.15;1.4;3.49;0.46;0.42
36;R37;L1-19-S1;c1cc2c(c3c1op(oc1c3c3ccccc3cc1)O[C@H](COC)c1ccccc1)cccc2.C=C(CC(=O)OC)C(=O)OC.ClCCl;;93.9;24;1.09;1.41;1.38;1.49;1.38;1.38;1.41;1.09;1.38;118.7;117.19;122.83;119.09;118.82;119.31;119.96;117.92;118.54;122.75;0.36;178.79;177.74;0.2;178.69;0.18;53.13;2.58;2.59;2.39;2.39;24.64;59.73;37.92;146.6;159.64;38.06;58.54;9.63;62.47;23.31;0.28;-0.27;0.32;-0.83;-0.83;0.31;-0.08;-0.08;-0.28;0.28;-0.25;-0.02;1523.86;1248.29;1277.51;3226.68;3232.26;84.95;119.09;174.4;3.68;1.93;2;1;1;9.52;1.35;6.95;6.01;1.35;7.95;2;1;1;462.6;467.35;28.14;1.59;466.47;0.89;0.07;0.11;0.06;1.33;49.8;52.44;-0.15;-0.36;-0.33;0;1749.08;25.91;191.37;161.86;39.51;1.33;158.15;1.4;3.49;0.46;0.42
37;R38;L1-20-S1;c1cc2c(c3c1op(oc1c3c3ccccc3cc1)O[C@H]1C[C@H](CC[C@@H]1C(C)C)C)cccc2.C=C(CC(=O)OC)C(=O)OC.ClCCl;;95.2;24;1.08;1.41;1.38;1.49;1.38;1.39;1.41;1.08;1.38;118.63;118.1;122.78;118.46;119.02;119.89;119.12;117.18;118.54;122.93;0.2;178.95;178.54;0.23;179.19;0.19;53.53;2.6;2.58;2.4;2.39;23.31;62.37;38.16;156.06;147.75;36.78;58.8;8.32;60.55;23.42;0.28;-0.28;0.31;-0.84;-0.83;0.32;-0.08;-0.08;-0.28;0.28;-0.25;-0.02;1524.61;1277.01;1249.33;3229.87;3251.08;81.65;229.49;128.07;2.63;2.01;2;1;1;3.97;1.35;9.35;9.05;2.15;5.85;2;1;1;442.76;451.64;40.58;1.56;474.45;3.85;0.2;0.19;0.2;1.33;49.8;52.44;-0.15;-0.36;-0.33;0;1749.08;25.91;191.37;161.86;39.51;1.33;158.15;1.4;3.49;0.46;0.42
38;R39;L1-20-S1;c1cc2c(c3c1op(oc1c3c3ccccc3cc1)O[C@H]1C[C@H](CC[C@@H]1C(C)C)C)cccc2.C=C(CC(=O)OC)C(=O)OC.ClCCl;;90.5;24;1.09;1.41;1.38;1.49;1.38;1.39;1.41;1.08;1.38;118.52;118.23;122.47;118.38;118.87;119.7;119.29;117.47;118.51;122.83;0.07;178.7;178.24;0.19;178.59;0.42;53.3;2.6;2.58;2.4;2.39;23.34;62.07;36.93;143.17;159.21;36.3;58.9;8.53;60.23;23.24;0.27;-0.28;0.32;-0.84;-0.83;0.32;-0.08;-0.08;-0.28;0.28;-0.25;-0.02;1521.55;1276.27;1247.14;3224.66;3230.75;82.82;188.9;121.9;4.44;5.32;2;1;1;5.26;1.35;8.73;8.78;2.88;5.63;2;1;1;475.82;488.08;19.76;1.59;470.55;1.61;0.2;0.09;0.07;1.33;49.8;52.44;-0.15;-0.36;-0.33;0;1749.08;25.91;191.37;161.86;39.51;1.33;158.15;1.4;3.49;0.46;0.42
39;R40;L2-1-S7;c1cc2c(c3c1op(oc1c3c3ccccc3cc1)N1CCCCC1)cccc2.C(=N\c1ccccc1)(/c1ccccc1)\C.ClCCl;;87;24;1.89;1.42;1.4;1.49;1.38;1.39;1.42;1.89;1.38;121.2;116.73;124.34;120.58;120.84;118.65;118.75;116.87;121.27;126.32;6.86;168.12;169.32;2.49;168.27;6.92;55.59;3.05;3.06;2.4;2.4;402.57;54.27;35.86;172.97;171.78;33.37;62.05;62.3;55.72;403.95;1.89;-0.55;0.33;-0.83;-0.83;0.34;-0.08;-0.07;-0.56;1.89;-0.26;-0.03;1498.47;1270.91;1270.91;787.04;787.04;69.25;133.09;133.09;40.55;40.55;6.38;4.21;6.49;5.23;1.35;3.89;4.92;1.35;3.98;6.38;4.21;6.49;825.71;886.31;42.13;1.85;865.09;4.44;0.06;0.03;0.03;1.28;3.96;-92.17;0.29;-0.66;-0.27;-0.01;1740.08;240.69;227.48;213.26;37.75;1.32;197.24;2.97;1.26;0.38;0.34
40;R41;L2-1-S8;c1cc2c(c3c1op(oc1c3c3ccccc3cc1)N1CCCCC1)cccc2.C(=N\c1ccc(cc1)OC)(/c1ccccc1)\C.ClCCl;;71;24;1.09;1.41;1.37;1.49;1.38;1.38;1.41;1.09;1.38;118.29;117.64;122.25;118.76;118.48;119.61;120.11;117.91;118.46;122.45;0.25;178.41;178.36;0.04;178.64;0.49;52.67;2.58;2.59;2.39;2.39;23.3;61.12;34.48;141.59;169.68;35.55;58.62;59.44;62.03;23.31;0.27;-0.28;0.32;-0.83;-0.83;0.32;-0.08;-0.09;-0.28;0.27;-0.25;-0.02;1521.61;1252;1280.81;3225.36;3233.88;104.79;45.37;141.12;5.43;10.07;2;1;1;7.75;2.01;3.87;4.65;1.35;7.56;2;1;1;392.82;402.68;15.6;1.49;399.43;2.59;0.24;0.13;0.1;1.28;15.94;-111.26;0.33;-0.49;-0.27;-0.05;1755.73;320.76;269.81;253.02;12.8;1.39;225.29;1.76;1.86;0.17;0.16
41;R42;L2-1-S9;c1cc2c(c3c1op(oc1c3c3ccccc3cc1)N1CCCCC1)cccc2.C(=N\c1c(cccc1)OC)(/c1ccccc1)\C.ClCCl;;97;24;1.09;1.41;1.37;1.49;1.38;1.38;1.41;1.09;1.38;118.29;117.64;122.25;118.76;118.48;119.61;120.11;117.91;118.46;122.45;0.25;178.41;178.36;0.04;178.64;0.49;52.67;2.58;2.59;2.39;2.39;23.3;61.12;34.48;141.59;169.68;35.55;58.62;59.44;62.03;23.31;0.27;-0.28;0.32;-0.83;-0.83;0.32;-0.08;-0.09;-0.28;0.27;-0.25;-0.02;1521.61;1252;1280.81;3225.36;3233.88;104.79;45.37;141.12;5.43;10.07;2;1;1;7.75;2.01;3.87;4.65;1.35;7.56;2;1;1;392.82;402.68;15.6;1.49;399.43;2.59;0.24;0.13;0.1;1.28;13.84;-95.67;0.34;-0.49;-0.26;-0.02;1761.79;370.42;273.41;257.16;10.75;1.4;243.28;4.17;1.06;0.19;0.17
42;R43;L2-1-S10;c1cc2c(c3c1op(oc1c3c3ccccc3cc1)N1CCCCC1)cccc2.C(=N\c1cc(cc(c1)C)C)(/c1ccccc1)\C.ClCCl;;99;24;1.09;1.41;1.38;1.49;1.38;1.38;1.41;1.09;1.38;118.48;117.73;122.55;118.43;118.64;120.11;119.69;117.73;118.34;122.4;0.61;178.71;178.42;0.45;178.42;0.82;52.55;2.59;2.58;2.39;2.39;23.33;62.15;35.73;141.85;170.07;34.82;59.34;58.8;60.99;23.32;0.27;-0.28;0.32;-0.83;-0.83;0.32;-0.08;-0.09;-0.28;0.27;-0.25;-0.02;1524.66;1385.09;1385.09;3224.15;3227.2;96.85;174.22;174.22;4.58;3.67;2;1;1;7.74;2.01;3.86;4.57;1.35;6.83;2;1;1;384.37;393.64;23.33;1.48;401.4;1.02;0.24;0.13;0.1;1.34;90.82;43.29;-0.51;0.15;-0.25;0.02;1731.24;74.34;232.88;209.46;28.92;1.37;191.23;5.49;2.12;0.28;0.26
43;R44;L2-1-S11;c1cc2c(c3c1op(oc1c3c3ccccc3cc1)N1CCCCC1)cccc2.C(=N\c1cc(c(c(c1)OC)OC)OC)(/c1ccccc1)\C.ClCCl;;99;24;1.09;1.41;1.38;1.49;1.38;1.37;1.41;1.09;1.38;118.46;117.75;122.5;118.43;118.61;120.13;119.72;117.75;118.3;122.34;0.49;178.65;178.46;0.38;178.49;0.71;52.56;2.59;2.58;2.39;2.39;23.31;61.99;35.48;140.79;169.69;34.53;59.37;58.69;60.91;23.32;0.27;-0.28;0.32;-0.83;-0.83;0.32;-0.08;-0.09;-0.28;0.27;-0.25;-0.02;1525.5;1385.31;1385.31;3225.62;3224.92;99.41;192.88;192.88;5.62;6.31;2;1;1;7.72;2;3.86;4.58;1.35;7.56;2;1;1;392.45;402.63;15.53;1.49;399.43;2.62;0.24;0.13;0.1;1.34;88.87;43.1;-0.5;0.15;-0.27;0.01;1734.2;49.45;203.32;182.53;21.95;1.31;161.2;5.15;2.29;0.5;0.43
44;R45;L2-1-S12;c1cc2c(c3c1op(oc1c3c3ccccc3cc1)N1CCCCC1)cccc2.C(=N\c1cc(c(c(c1)C)OC)C)(/c1ccccc1)\C.ClCCl;;99;24;1.09;1.41;1.38;1.49;1.38;1.38;1.41;1.09;1.38;118.48;117.73;122.55;118.43;118.64;120.11;119.69;117.73;118.34;122.4;0.61;178.71;178.42;0.45;178.42;0.82;52.55;2.59;2.58;2.39;2.39;23.33;62.15;35.73;141.85;170.07;34.82;59.34;58.8;60.99;23.32;0.27;-0.28;0.32;-0.83;-0.83;0.32;-0.08;-0.09;-0.28;0.27;-0.25;-0.02;1524.66;1385.09;1385.09;3224.15;3227.2;96.85;174.22;174.22;4.58;3.67;2;1;1;7.74;2.01;3.86;4.57;1.35;6.83;2;1;1;384.37;393.64;23.33;1.48;401.4;1.02;0.24;0.13;0.1;1.34;87.83;44.15;-0.49;0.14;-0.27;0;1734.31;52.87;218.94;196.14;21.97;1.34;195.65;3.63;2.11;0.28;0.25
45;R46;L2-1-S9;c1cc2c(c3c1op(oc1c3c3ccccc3cc1)N1CCCCC1)cccc2.C(=N\c1c(cccc1)OC)(/c1ccccc1)\C.ClCCl;;97;24;1.09;1.41;1.38;1.49;1.38;1.37;1.42;1.09;1.38;118.39;117.82;122.55;118.62;119.08;120.68;119.62;117.82;118.14;122.13;0.06;178.8;178.33;0.62;177.55;0.22;52.28;2.59;2.57;2.39;2.38;23.34;62.07;35.57;146.05;167.21;33.81;60.05;58.99;60.5;23.25;0.27;-0.28;0.32;-0.83;-0.83;0.33;-0.08;-0.09;-0.28;0.27;-0.25;-0.02;1521.67;1252.37;1252.37;3235.76;3237.19;99.89;154.52;154.52;4.27;4.58;2;1;1;8.84;1.47;3.89;4.93;1.35;7.63;2;1;1;408.26;420.03;15.68;1.51;413.46;2.65;0.24;0.11;0.09;1.35;57.04;62.91;-0.2;0.05;-0.27;-0.02;1751.43;44.03;251.68;229.55;41.26;1.39;219.24;2.78;0.77;0.35;0.26
46;R47;L2-1-S14;c1cc2c(c3c1op(oc1c3c3ccccc3cc1)N1CCCCC1)cccc2.C(=N\c1c(cccc1)OC)(/c1cc2c(cc1)cccc2)\C.ClCCl;;97;24;1.09;1.41;1.37;1.49;1.38;1.38;1.41;1.09;1.38;118.29;117.64;122.25;118.76;118.48;119.61;120.11;117.91;118.46;122.45;0.25;178.41;178.36;0.04;178.64;0.49;52.67;2.58;2.59;2.39;2.39;23.3;61.12;34.48;141.59;169.68;35.55;58.62;59.44;62.03;23.31;0.27;-0.28;0.32;-0.83;-0.83;0.32;-0.08;-0.09;-0.28;0.27;-0.25;-0.02;1521.61;1252;1280.81;3225.36;3233.88;104.79;45.37;141.12;5.43;10.07;2;1;1;7.75;2.01;3.87;4.65;1.35;7.56;2;1;1;392.82;402.68;15.6;1.49;399.43;2.59;0.24;0.13;0.1;1.28;7.96;-96.58;0.35;-0.48;-0.29;-0.06;1753.11;407.84;302.41;288.97;9.85;1.43;253.34;3.41;0.64;0.24;0.2
47;R48;L2-1-S15;c1cc2c(c3c1op(oc1c3c3ccccc3cc1)N1CCCCC1)cccc2.C(=N\c1c(cccc1)OC)(/c1ccc(cc1)C)\C.ClCCl;;98;24;1.52;1.44;1.86;1.5;1.39;1.88;1.44;1.51;1.39;122.81;112.93;119.22;122.97;121.81;113.64;127.85;127.36;120.3;118.99;2.73;177.27;177.42;1.75;176.13;4.75;95.28;3.02;3.35;2.77;2.98;147.7;36.26;52.07;378.5;383.02;43.92;38.83;35.7;39.64;159.45;-0.47;-0.02;-0.33;0.89;0.88;-0.31;-0.01;-0.02;-0.02;-0.5;-0.25;-0.02;1312.3;1187.33;1187.33;1162.41;1187.33;1.35;1.77;1.77;5.24;1.76;8.42;1.58;4.96;7.12;2.38;5.84;7.12;2.38;5.84;8.42;1.58;4.96;811.31;897.83;0;1.8;830.99;3.9;0.05;0.03;0.03;1.33;80.81;50.47;-0.44;0.03;-0.3;0.01;1741.77;389.88;173.2;146;44.92;1.29;143.14;8.49;2.06;1;0.92
48;R49;L2-1-S16;c1cc2c(c3c1op(oc1c3c3ccccc3cc1)N1CCCCC1)cccc2.C(=N\c1c(cccc1)OC)(/c1ccc(cc1)Cl)\C.ClCCl;;97;24;1.89;1.42;1.39;1.49;1.38;1.39;1.42;1.89;1.38;121.47;116.67;124.23;120.61;120.76;118.79;118.9;116.84;121.35;126.32;5.21;169.6;169.69;2.54;168.55;6.88;55.11;3.06;3.06;2.39;2.39;400.09;53.2;35.15;172.22;168.95;32.68;61.85;62.51;55.18;402.59;1.89;-0.55;0.34;-0.83;-0.83;0.34;-0.08;-0.08;-0.55;1.89;-0.26;-0.02;1500.07;1277.65;1277.65;787.23;787.23;52.93;94.94;94.94;28.57;28.57;6.38;4.21;6.49;5.23;1.35;3.89;4.92;1.35;3.98;6.38;4.21;6.49;822.06;885.7;40.55;1.84;865.09;3.54;0.06;0.03;0.03;1.28;6.14;-104.48;0.28;-0.63;-0.27;-0.01;1745.26;163.29;306.81;296.45;37.6;1.43;273.33;2.59;0.89;0.12;0.12
49;R50;L2-1-S17;c1cc2c(c3c1op(oc1c3c3ccccc3cc1)N1CCCCC1)cccc2.C(=N\c1c(cccc1)OC)(/c1ccc(cc1)C(F)(F)F)\C.ClCCl;;97;24;1.49;1.43;1.38;1.49;1.38;1.37;1.43;1.49;1.38;121.56;119.48;121.56;120.98;120.03;122.67;118.96;116.11;121.97;121.14;3.49;176.17;175.1;8.46;177.17;5.91;73.91;2.89;2.83;2.43;2.38;44.48;43.48;30.97;228.77;227.93;36.38;59.86;58.22;44.65;44.08;-0.06;-0.08;0.36;-0.81;-0.81;0.36;-0.09;-0.08;-0.07;-0.05;-0.25;-0.02;1050.05;1269.46;1269.46;1211.73;1211.73;61.95;241.46;241.46;98.16;98.16;6.33;1.62;4.37;7.48;1.52;6.53;7.48;1.52;6.53;6.33;1.62;4.37;823.83;917.16;6.67;1.8;862.99;1.12;0.05;0.04;0.03;1.35;83.83;31.57;-0.41;0.24;-0.28;-0.03;1700.12;767.73;265.6;242.51;42.25;1.41;253.69;1.3;0.77;0.2;0.17
50;R51;L2-1-S18;c1cc2c(c3c1op(oc1c3c3ccccc3cc1)N1CCCCC1)cccc2.C(=N\c1c(cccc1)OC)(/c1ccc(cc1)F)\C.ClCCl;;97;24;1.09;1.41;1.38;1.49;1.38;1.38;1.41;1.09;1.38;118.52;117.94;122.49;118.43;118.56;120.05;119.55;117.94;118.36;122.34;0.22;178.66;178.87;0.51;178.71;0.63;52.79;2.59;2.58;2.39;2.39;23.34;62.04;35.74;141.47;172.69;34.82;59.31;58.56;61.09;23.28;0.27;-0.28;0.32;-0.83;-0.83;0.32;-0.08;-0.09;-0.28;0.27;-0.25;-0.02;1526.26;1384.46;1384.46;3232.51;3223.89;97.91;163.72;163.72;6.73;5.36;2;1;1;9.98;2.57;3.87;5.29;1.35;9.75;2;1;1;434.28;449.7;15.51;1.53;447.47;2.21;0.23;0.08;0.07;1.33;51.89;50.27;-0.36;-0.16;-0.32;0;1752.73;50.1;191.24;161.83;39.33;1.33;158.15;3.83;2.56;0.51;0.44
51;R52;L2-1-S79;c1cc2c(c3c1op(oc1c3c3ccccc3cc1)N1CCCCC1)cccc2.C(=N\c1c(cccc1)OC)(/c1ccc(cc1)F)\C.ClCCl;;93;24;1.5;1.43;1.38;1.49;1.38;1.38;1.42;1.5;1.38;119.09;116.93;122.83;118.97;118.78;119.02;120.22;117.85;119.27;123.11;0.1;177.94;176.04;0.56;179.81;1.61;53.05;2.78;2.8;2.39;2.4;174.92;50.47;34.07;145.81;170.46;35.66;58.5;60.65;50.47;173.89;-0.71;-0.06;0.34;-0.83;-0.83;0.33;-0.07;-0.08;-0.06;-0.72;-0.25;-0.01;1514.86;1268.57;1281.21;1142.19;1133.9;69.11;55.67;224.42;73.62;49.91;2.99;1.5;2.04;9.68;1.35;11.12;10.56;1.66;8.01;2.99;1.5;2.04;661.57;689.16;14.09;1.75;661.72;4.6;0.1;0.04;0.04;1.28;15.13;-112.83;0.33;-0.48;-0.28;-0.05;1759.71;378.98;240.76;226.14;5.89;1.34;195.26;2.59;2;0.27;0.25
52;R53;L2-1-S20;c1cc2c(c3c1op(oc1c3c3ccccc3cc1)N1CCCCC1)cccc2.C(=N\c1c(cccc1)OC)(/c1ccccc1)\CC.ClCCl;;94;24;1.89;1.42;1.4;1.49;1.38;1.39;1.42;1.89;1.38;121.11;116.7;124.37;120.55;120.87;118.64;118.73;116.83;121.24;126.24;7.74;167.1;168.81;2.3;168.21;6.99;55.7;3.05;3.06;2.4;2.4;402.95;54.42;35.93;172.89;172.17;33.49;62.08;62.33;55.81;404.08;1.89;-0.55;0.33;-0.83;-0.83;0.34;-0.08;-0.07;-0.56;1.89;-0.26;-0.03;1498.46;1269.92;1269.92;786.88;786.88;70.27;140.14;140.14;40.73;40.73;6.38;4.21;6.49;5.23;1.35;3.89;4.92;1.35;3.98;6.38;4.21;6.49;826.32;886.44;42.5;1.85;865.09;4.54;0.06;0.03;0.03;1.28;4.07;-89.73;0.29;-0.67;-0.27;-0.01;1738.88;247.88;227.51;213.27;37.77;1.32;197.24;3.03;1.26;0.38;0.34
53;R54;L2-1-S21;c1cc2c(c3c1op(oc1c3c3ccccc3cc1)N1CCCCC1)cccc2.C(=N\c1c(cccc1)OC)(/c1ccccc1)\CCC.ClCCl;;97;24;1.09;1.41;1.37;1.49;1.38;1.38;1.41;1.09;1.38;118.29;117.64;122.25;118.76;118.48;119.61;120.11;117.91;118.46;122.45;0.25;178.41;178.36;0.04;178.64;0.49;52.67;2.58;2.59;2.39;2.39;23.3;61.12;34.48;141.59;169.68;35.55;58.62;59.44;62.03;23.31;0.27;-0.28;0.32;-0.83;-0.83;0.32;-0.08;-0.09;-0.28;0.27;-0.25;-0.02;1521.61;1252;1280.81;3225.36;3233.88;104.79;45.37;141.12;5.43;10.07;2;1;1;7.75;2.01;3.87;4.65;1.35;7.56;2;1;1;392.82;402.68;15.6;1.49;399.43;2.59;0.24;0.13;0.1;1.28;12.43;-96.44;0.34;-0.49;-0.27;-0.02;1762.32;357.27;314.58;303.88;10.76;1.44;275.35;3.22;0.79;0.14;0.13
54;R55;L2-5-S22;c1cc2c(c3c1op(oc1c3c3ccccc3cc1)N(c1c(cccc1)P(c1ccccc1)c1ccccc1)c1ccccc1)cccc2.c1(nc2c(cc1)cccc2)C.c1(ccccc1)C;;67;24;1.09;1.42;1.37;1.49;1.38;1.37;1.42;1.09;1.38;119.23;120.33;121.33;119.27;119.84;119.6;118.23;118.73;118.35;121.66;4.16;179.73;178.62;2.86;179.7;1.24;99.41;2.65;2.6;2.42;2.4;23.27;62.51;30.72;219.03;223.25;27.83;56.86;58.49;52.81;23.5;0.27;-0.3;0.34;-0.81;-0.81;0.34;-0.07;-0.08;-0.08;0.27;-0.25;-0.01;1100.12;1305.45;1283.34;3214.82;3201.38;54.41;90.96;120.03;6.64;3.51;2;1;1;5.64;1.35;5.5;5.64;1.35;5.5;2;1;1;534.62;545.48;10.81;1.66;514.59;2.39;0.12;0.1;0.09;1.32;73.85;38.56;-0.43;0.17;-0.34;0.02;1793.68;34.63;154.82;127.5;19.82;1.26;154.09;3.87;2.31;1.02;0.9
55;R56;L2-2-S22;c1cc2c(c3c1op(oc1c3c3ccccc3cc1)N([C@@H](C)c1ccccc1)c1c(cccc1)P(c1ccccc1)c1ccccc1)cccc2.c1(nc2c(cc1)cccc2)C.c1(ccccc1)C;;96;24;1.09;1.43;1.85;1.5;1.39;1.86;1.42;1.09;1.39;119.36;116.94;118.88;121.55;119.99;117.77;123;122.69;119.53;119.51;8.89;176.85;173.43;2.8;179.24;2.76;79.95;2.89;3.03;2.8;2.89;23;53.96;41.44;366.24;383.3;39.66;37.48;42.35;55.16;23.88;0.27;-0.25;-0.33;0.9;0.91;-0.33;-0.02;-0.04;-0.25;0.27;-0.25;-0.02;1228.24;1197.77;1173.17;3218.98;3224.16;0.86;1.58;1.38;2.12;7.92;2;1;1;7.12;2.38;5.84;7.12;2.38;5.84;2;1;1;597.86;662.41;0;1.63;622.69;3.05;0.09;0.06;0.06;1.35;50.87;64.75;0.17;-0.22;-0.24;-0.02;1728.2;162.16;469.67;462.55;40.61;1.62;445.51;7.66;0.18;0.07;0.06