index;name;L-S;smiles;comment;%ee;T;BL32-1;BL1-6;BL6-34;BL5-12;BL12-11;BL33-11;BL11-16;BL16-31;BL6-5;BA32-1-6;BA1-6-34;BA1-6-5;BA6-5-12;BA5-12-11;BA12-11-33;BA5-6-34;BA33-11-16;BA11-16-31;BA12-11-16;DA32-1-6-34;DA32-1-6-5;DA1-6-5-12;DA5-12-11-33;DA12-11-16-31;DA33-11-16-31;DA6-5-12-11;NB32-34;NB33-31;NB1-34;NB33-16;NMR 32;NMR1;NMR6;NMR34;NMR33;NMR11;NMR12;NMR5;NMR16;NMR31;q32;q1;q6;q34;q33;q11;q12;q5;q16;q31;HOMO;LUMO;VF5-12;VF6-34;VF11-33;VF1-32;VF16-31;VI5-12;VI6-34;VI11-33;VI1-32;VI16-31;L1R1;B1R1;B5R1;L1R2;B1R2;B5R2;L1R3;B1R3;B5R3;L1R4;B1R4;B5R4;Area; Vol;PSA; Ovality;MW;dipolemoment;RCx;RCy;RCz;BL12-16S;NMR12-S;NMR16-S;q12-S;q16-S;HOMO-S;LUMO-S;VF12-16S;VI12-16S;Area-S; Vol-S;PSA-S; Ovality-S;MW-S;dipolemoment-S;RCx-S;RCy-S;RCz-S
56;R57;L2-3-S22;c1cc2c(c3c1op(oc1c3c3ccccc3cc1)N([C@H](C)c1c3ccccc3ccc1)c1c(cccc1)P(c1ccccc1)c1ccccc1)cccc2.c1(nc2c(cc1)cccc2)C.c1(ccccc1)C;;97;24;1.89;1.42;1.4;1.49;1.38;1.39;1.42;1.89;1.38;121.25;116.69;124.35;120.56;120.86;118.68;118.77;116.82;121.3;125.99;6.99;167.89;169.07;2.4;168.33;6.93;55.55;3.05;3.06;2.4;2.4;401.91;54.13;35.71;172.72;171.5;33.26;62.02;62.41;55.54;403.72;1.89;-0.55;0.33;-0.83;-0.83;0.34;-0.08;-0.07;-0.56;1.89;-0.26;-0.03;1498.8;1272.18;1272.18;786.91;786.91;65.57;128.32;128.32;37.77;37.77;6.38;4.21;6.49;5.23;1.35;3.89;4.92;1.35;3.98;6.38;4.21;6.49;825.6;886.42;42.16;1.85;865.09;4.21;0.06;0.03;0.03;1.34;31.04;66.09;-0.05;-0.43;-0.25;0;1713.35;49.93;345.46;333.91;20.87;1.48;312.44;2.17;0.41;0.19;0.16
57;R58;L2-4-S22;c1cc2c(c3c1op(oc1c3c3ccccc3cc1)N([C@@H](C)c1c3ccccc3ccc1)c1c(cccc1)P(c1ccccc1)c1ccccc1)cccc2.c1(nc2c(cc1)cccc2)C.c1(ccccc1)C;;81;24;1.09;1.41;1.38;1.49;1.38;1.37;1.41;1.09;1.38;118.47;117.77;122.55;118.5;118.63;120.18;119.65;117.77;118.3;122.3;0.64;178.79;178.7;0.71;178.28;0.65;52.59;2.59;2.58;2.39;2.39;23.35;62.15;35.66;140.62;171.02;34.78;59.36;58.71;60.88;23.38;0.27;-0.28;0.32;-0.83;-0.83;0.32;-0.08;-0.09;-0.28;0.27;-0.25;-0.02;1523.48;1386.47;1386.47;3224.64;3230.77;95.25;157.78;157.78;5.26;8.49;2;1;1;6.57;1.35;3.87;4.58;1.35;5.49;2;1;1;354.56;360.63;15.63;1.45;359.37;2.33;0.26;0.2;0.13;1.34;90.82;43.29;-0.51;0.15;-0.25;0.02;1731.24;74.34;232.88;209.46;28.92;1.37;191.23;5.49;2.12;0.28;0.26
58;R59;L2-2-S23;c1cc2c(c3c1op(oc1c3c3ccccc3cc1)N([C@@H](C)c1ccccc1)c1c(cccc1)P(c1ccccc1)c1ccccc1)cccc2.c1(nc2c(cc1)cccc2)c1ccccc1.c1(ccccc1)C;;90;24;1.89;1.42;1.39;1.49;1.38;1.39;1.42;1.89;1.38;121.46;116.67;124.23;120.61;120.76;118.79;118.9;116.84;121.34;126.32;5.26;169.56;169.68;2.54;168.54;6.88;55.12;3.06;3.06;2.39;2.39;400.14;53.23;35.17;172.26;169.02;32.7;61.86;62.5;55.19;402.62;1.89;-0.55;0.34;-0.83;-0.83;0.34;-0.08;-0.08;-0.55;1.89;-0.26;-0.02;1500.02;1277.44;1277.44;787.23;787.23;53.53;96.13;96.13;28.97;28.97;6.38;4.21;6.49;5.23;1.35;3.89;4.92;1.35;3.98;6.38;4.21;6.49;822.12;885.73;40.59;1.84;865.09;3.57;0.06;0.03;0.03;1.28;5.89;-104.66;0.28;-0.63;-0.27;0;1746.84;153.6;227.25;213.14;37.58;1.32;197.24;2.48;1.26;0.38;0.33
59;R60;L2-3-S23;c1cc2c(c3c1op(oc1c3c3ccccc3cc1)N([C@H](C)c1c3ccccc3ccc1)c1c(cccc1)P(c1ccccc1)c1ccccc1)cccc2.c1(nc2c(cc1)cccc2)c1ccccc1.c1(ccccc1)C;;89;24;1.09;1.41;1.38;1.49;1.38;1.38;1.41;1.09;1.38;118.52;117.94;122.49;118.43;118.56;120.05;119.55;117.94;118.36;122.34;0.22;178.66;178.87;0.51;178.71;0.63;52.79;2.59;2.58;2.39;2.39;23.34;62.04;35.74;141.47;172.69;34.82;59.31;58.56;61.09;23.28;0.27;-0.28;0.32;-0.83;-0.83;0.32;-0.08;-0.09;-0.28;0.27;-0.25;-0.02;1526.26;1384.46;1384.46;3232.51;3223.89;97.91;163.72;163.72;6.73;5.36;2;1;1;9.98;2.57;3.87;5.29;1.35;9.75;2;1;1;434.28;449.7;15.51;1.53;447.47;2.21;0.23;0.08;0.07;1.34;60.87;46.82;-0.23;0.14;-0.26;0.01;1755.29;52.32;242.74;219.07;23.25;1.38;189.26;4.78;0.86;0.51;0.36
60;R61;L2-6-S24;c1cc2c(c3c1op(oc1c3c3ccccc3cc1)N(C)Cc1ccccc1)cccc2.[C](=[N+])(c1c(cccc1)Cl)c1ccccc1.[Cl-].ClCCl;;87;24;1.09;1.43;1.85;1.5;1.39;1.86;1.42;1.09;1.39;119.31;117.17;118.86;121.45;120.04;117.7;122.8;122.76;119.44;119.51;8.94;176.89;174.09;3.21;179.06;3.02;80.1;2.9;3.03;2.81;2.89;23.02;54.02;41.63;365.63;383.84;39.55;37.46;42.18;55.15;23.97;0.27;-0.25;-0.33;0.9;0.91;-0.33;-0.02;-0.04;-0.25;0.26;-0.25;-0.02;1228.24;1197.77;1173.17;3218.98;3224.16;0.86;1.58;1.38;2.12;7.92;2;1;1;7.12;2.38;5.84;7.12;2.38;5.84;2;1;1;597.86;662.41;0;1.63;622.69;3.05;0.09;0.06;0.06;1.34;42.51;54.41;-0.19;0.03;-0.28;-0.03;1728.79;80.28;288.08;273.95;57.05;1.41;267.28;8.57;0.47;0.27;0.21
61;R62;L2-6-S25;c1cc2c(c3c1op(oc1c3c3ccccc3cc1)N(C)Cc1ccccc1)cccc2.[C](=[N+])(c1c(cccc1)Br)c1ccccc1.[Cl-].ClCCl;;91;24;1.49;1.42;1.39;1.49;1.38;1.39;1.42;1.49;1.38;120.86;117.03;123.74;119.32;118.94;119.22;119.2;116.97;120.52;129.27;0.78;178.87;178.65;0.79;178.11;0.53;52.45;2.82;2.81;2.39;2.39;51.53;49.44;39.7;184.4;178.22;38.49;60.68;60.86;50.33;51.01;-0.01;-0.08;0.33;-0.82;-0.83;0.33;-0.07;-0.07;-0.09;-0.01;-0.23;-0.04;1505.32;1276.54;1276.54;1516.81;1516.81;47.38;119.67;119.67;6.97;6.97;6.4;1.53;5.61;5.23;1.35;3.89;4.92;1.35;3.98;6.4;1.53;5.61;650.7;692.74;49.81;1.72;700.73;3.71;0.07;0.04;0.04;1.34;38.99;81.56;0.14;-0.46;-0.27;0;1737.6;108.19;200.47;181.82;25.5;1.29;161.2;3.79;1.65;0.65;0.55
62;R63;L2-6-S26;c1cc2c(c3c1op(oc1c3c3ccccc3cc1)N(C)Cc1ccccc1)cccc2.[C](=[N+])(c1c(cccc1)C)c1ccccc1.[Cl-].ClCCl;;82;24;1.09;1.41;1.38;1.49;1.38;1.38;1.41;1.08;1.38;118.49;118.13;122.59;118.57;119.32;120.78;119.27;117.08;118.37;122.08;0.06;178.78;178.3;1.39;176.71;0.51;52.7;2.59;2.57;2.39;2.38;23.29;62.28;35.8;162.16;151.78;36.19;60.96;58.97;60.24;23.76;0.27;-0.28;0.32;-0.83;-0.83;0.32;-0.09;-0.08;-0.28;0.27;-0.25;-0.02;1522.69;1279.47;1252.94;3229.41;3243.51;100.07;233.63;101.09;5.97;2.72;2;1;1;5.03;1.35;7.53;10.26;1.92;4.58;2;1;1;427.27;443.34;15.41;1.52;435.46;2.02;0.23;0.11;0.08;1.29;-2.19;62.61;0.43;-0.69;-0.26;-0.01;1737.35;474.47;267.17;247.67;13.44;1.4;231.73;15.55;0.63;0.32;0.24
63;R64;L2-6-S27;c1cc2c(c3c1op(oc1c3c3ccccc3cc1)N(C)Cc1ccccc1)cccc2.[C](=[N+])(c1c(cccc1)OC)c1ccccc1.[Cl-].ClCCl;;76;24;1.09;1.41;1.38;1.49;1.38;1.37;1.42;1.09;1.38;118.45;117.87;122.52;118.43;118.8;120.28;119.59;117.87;118.2;122.25;0.19;178.59;178.41;0.2;178.33;0.56;52.47;2.59;2.58;2.39;2.38;23.33;62.19;35.26;147.21;170.01;34.27;59.11;58.82;60.54;23.26;0.27;-0.28;0.32;-0.83;-0.83;0.32;-0.08;-0.08;-0.28;0.27;-0.25;-0.02;1525.15;1254.64;1254.64;3244.72;3233.94;100.47;141.97;141.97;3.54;3.85;2;1;1;7.84;1.45;3.87;4.55;1.35;6.76;2;1;1;377.23;386.01;15.78;1.47;385.4;2.93;0.25;0.15;0.11;1.34;90.82;43.29;-0.51;0.15;-0.25;0.02;1731.24;74.34;232.88;209.46;28.92;1.37;191.23;5.49;2.12;0.28;0.26
64;R65;L2-6-S28;c1cc2c(c3c1op(oc1c3c3ccccc3cc1)N(C)Cc1ccccc1)cccc2.[C](=[N+])(c1c(c(ccc1)C)C)c1ccccc1.[Cl-].ClCCl;;86;24;1.09;1.41;1.38;1.49;1.38;1.38;1.41;1.09;1.38;118.39;116.94;122.78;119.07;118.74;119.4;120.27;117.89;118.52;122.71;0.23;178.34;178.02;0.99;178.71;0.66;52.96;2.57;2.59;2.38;2.39;23.23;61.76;35.97;143.59;163.85;37.71;58.94;0.02;62.35;23.33;0.28;-0.28;0.32;-0.83;-0.84;0.31;-0.08;-0.08;-0.28;0.28;-0.26;-0.02;1522.32;1246.81;1275.08;3239.11;3232.59;84.6;152.66;175.5;2.77;3.05;2;1;1;7.87;1.48;5.18;4.05;1.35;8.18;2;1;1;381.64;383.35;29.18;1.5;390.38;2.48;0.23;0.14;0.11;1.34;42.65;89.35;0.15;-0.5;-0.27;0.01;1733.89;52.63;203.37;182.54;21.95;1.31;161.2;5.17;2.3;0.5;0.43
65;R66;L2-6-S29;c1cc2c(c3c1op(oc1c3c3ccccc3cc1)N(C)Cc1ccccc1)cccc2.[C](=[N+])(c1c(cccc1)Cl)c1ccc(cc1)C.[Cl-].ClCCl;;92;24;1.89;1.42;1.39;1.49;1.38;1.39;1.42;1.89;1.38;121.47;116.67;124.23;120.61;120.76;118.79;118.9;116.84;121.35;126.32;5.21;169.6;169.69;2.54;168.55;6.88;55.11;3.06;3.06;2.39;2.39;400.09;53.2;35.15;172.22;168.95;32.68;61.85;62.51;55.18;402.59;1.89;-0.55;0.34;-0.83;-0.83;0.34;-0.08;-0.08;-0.55;1.89;-0.26;-0.02;1500.07;1277.65;1277.65;787.23;787.23;52.93;94.94;94.94;28.57;28.57;6.38;4.21;6.49;5.23;1.35;3.89;4.92;1.35;3.98;6.38;4.21;6.49;822.06;885.7;40.55;1.84;865.09;3.54;0.06;0.03;0.03;1.28;6.07;-101.94;0.28;-0.63;-0.27;0;1747.26;134.15;244.98;230.81;35.89;1.35;211.26;2.53;1.2;0.31;0.28
66;R67;L2-6-S30;c1cc2c(c3c1op(oc1c3c3ccccc3cc1)N(C)Cc1ccccc1)cccc2.[C](=[N+])(c1c(cccc1)Cl)c1ccc(cc1)OC.[Cl-].ClCCl;;93;24;1.5;1.43;1.38;1.49;1.38;1.38;1.42;1.5;1.38;119.09;116.93;122.83;118.97;118.78;119.02;120.22;117.85;119.27;123.11;0.1;177.94;176.04;0.56;179.81;1.61;53.05;2.78;2.8;2.39;2.4;174.92;50.47;34.07;145.81;170.46;35.66;58.5;60.65;50.47;173.89;-0.71;-0.06;0.34;-0.83;-0.83;0.33;-0.07;-0.08;-0.06;-0.72;-0.25;-0.01;1514.86;1268.57;1281.21;1142.19;1133.9;69.11;55.67;224.42;73.62;49.91;2.99;1.5;2.04;9.68;1.35;11.12;10.56;1.66;8.01;2.99;1.5;2.04;661.57;689.16;14.09;1.75;661.72;4.6;0.1;0.04;0.04;1.28;17.14;-118.45;0.33;-0.48;-0.27;-0.05;1763.72;315.52;270.97;253.18;5.8;1.4;264.15;5.46;1.03;0.15;0.14
67;R68;L2-6-S31;c1cc2c(c3c1op(oc1c3c3ccccc3cc1)N(C)Cc1ccccc1)cccc2.[C](=[N+])(c1c(cccc1)C)c1ccc(cc1)C.[Cl-].ClCCl;;91;24;1.89;1.42;1.39;1.49;1.38;1.39;1.42;1.89;1.38;121.47;116.67;124.23;120.61;120.76;118.79;118.9;116.84;121.35;126.32;5.21;169.6;169.69;2.54;168.55;6.88;55.11;3.06;3.06;2.39;2.39;400.09;53.2;35.15;172.22;168.95;32.68;61.85;62.51;55.18;402.59;1.89;-0.55;0.34;-0.83;-0.83;0.34;-0.08;-0.08;-0.55;1.89;-0.26;-0.02;1500.07;1277.65;1277.65;787.23;787.23;52.93;94.94;94.94;28.57;28.57;6.38;4.21;6.49;5.23;1.35;3.89;4.92;1.35;3.98;6.38;4.21;6.49;822.06;885.7;40.55;1.84;865.09;3.54;0.06;0.03;0.03;1.28;9.11;-115.47;0.28;-0.62;-0.27;-0.01;1746.73;166.13;231.48;217.49;37.61;1.32;215.23;2.17;1.08;0.37;0.33
68;R69;L2-6-S32;c1cc2c(c3c1op(oc1c3c3ccccc3cc1)N(C)Cc1ccccc1)cccc2.[C](=[N+])(c1c(cccc1)C)c1ccc(cc1)OC.[Cl-].ClCCl;;94;24;1.5;1.43;1.38;1.49;1.38;1.38;1.42;1.5;1.38;119.09;116.93;122.83;118.97;118.78;119.02;120.22;117.85;119.27;123.11;0.1;177.94;176.04;0.56;179.81;1.61;53.05;2.78;2.8;2.39;2.4;174.92;50.47;34.07;145.81;170.46;35.66;58.5;60.65;50.47;173.89;-0.71;-0.06;0.34;-0.83;-0.83;0.33;-0.07;-0.08;-0.06;-0.72;-0.25;-0.01;1514.86;1268.57;1281.21;1142.19;1133.9;69.11;55.67;224.42;73.62;49.91;2.99;1.5;2.04;9.68;1.35;11.12;10.56;1.66;8.01;2.99;1.5;2.04;661.57;689.16;14.09;1.75;661.72;4.6;0.1;0.04;0.04;1.28;16.18;-115.13;0.33;-0.48;-0.25;-0.02;1760.9;356.22;256.31;239.73;5.87;1.37;229.71;3.36;1.87;0.17;0.16
69;R70;L2-6-S33;c1cc2c(c3c1op(oc1c3c3ccccc3cc1)N(C)Cc1ccccc1)cccc2.[C](=[N+])(c1c(c(ccc1)C(F)(F)F)Cl)c1ccc(cc1)C.[Cl-].ClCCl;;92;24;1.5;1.43;1.38;1.49;1.38;1.38;1.42;1.5;1.38;119.09;116.93;122.83;118.97;118.78;119.02;120.22;117.85;119.27;123.11;0.1;177.94;176.04;0.56;179.81;1.61;53.05;2.78;2.8;2.39;2.4;174.92;50.47;34.07;145.81;170.46;35.66;58.5;60.65;50.47;173.89;-0.71;-0.06;0.34;-0.83;-0.83;0.33;-0.07;-0.08;-0.06;-0.72;-0.25;-0.01;1514.86;1268.57;1281.21;1142.19;1133.9;69.11;55.67;224.42;73.62;49.91;2.99;1.5;2.04;9.68;1.35;11.12;10.56;1.66;8.01;2.99;1.5;2.04;661.57;689.16;14.09;1.75;661.72;4.6;0.1;0.04;0.04;1.28;14.05;-115.77;0.33;-0.48;-0.25;-0.02;1760.92;493.07;354.28;340.51;11.97;1.5;303.4;5.54;0.93;0.09;0.09
70;R71;L2-6-S34;c1cc2c(c3c1op(oc1c3c3ccccc3cc1)N(C)Cc1ccccc1)cccc2.[C](=[N+])(c1c(ccc(c1)Cl)Cl)c1ccc(cc1)C.[Cl-].ClCCl;;72;24;1.49;1.42;1.39;1.49;1.38;1.39;1.42;1.48;1.38;121.93;117.47;123.09;119.72;119.58;118.61;119.25;117.59;121.38;126.3;1.05;173.83;171.62;0.2;178.73;0.54;53.75;2.85;2.84;2.41;2.4;43.04;49.8;42.68;184.33;185.61;42.3;59.67;60.7;51.16;43.08;-0.04;-0.08;0.33;-0.83;-0.83;0.33;-0.06;-0.07;-0.08;-0.04;-0.27;-0.04;1567.85;1227.36;1238.23;1505.24;1505.24;30.37;20.67;68.24;27.67;27.67;6.96;2.28;4.9;5.23;1.35;3.89;4.92;1.35;3.98;6.96;2.28;4.9;614.42;616.41;49.73;1.75;772.48;8.36;0.06;0.03;0.03;1.28;18.7;-126.44;0.32;-0.46;-0.26;-0.03;1766.92;232.27;306.86;285.16;13.26;1.46;293.29;4.58;1.32;0.09;0.09
71;R72;L2-6-S35;c1cc2c(c3c1op(oc1c3c3ccccc3cc1)N(C)Cc1ccccc1)cccc2.[C](=[N+])(c1c(cccc1Cl)Cl)c1ccc(cc1)C.[Cl-].ClCCl;;81;24;1.08;1.42;1.37;1.49;1.38;1.38;1.41;1.08;1.38;118.02;115.93;121.61;120.43;118.6;119.01;122.36;118.49;118.38;122.5;0.03;176.37;175.58;3.8;178.66;1.72;52.72;2.54;2.6;2.37;2.4;22.86;60.27;33.38;172.11;145.83;36.66;58.51;60.72;62.02;23.7;0.27;-0.28;0.33;-0.82;-0.82;0.31;-0.08;-0.09;-0.27;0.27;-0.25;-0.02;1530.55;1261.68;1286.46;3243.49;3235.61;71.44;244.38;206.06;6.07;7.73;2;1;1;9.08;1.35;10.25;10.84;2.22;9.14;2;1;1;717.44;767.75;14.51;1.77;745.8;1.95;0.07;0.04;0.03;1.31;23.18;-90.11;0.25;-0.48;-0.26;0.04;1663.45;25.31;177.03;162.32;7.03;1.23;143.19;2.17;2.8;0.86;0.66
72;R73;L2-6-S36;c1cc2c(c3c1op(oc1c3c3ccccc3cc1)N(C)Cc1ccccc1)cccc2.[C](=[N+])(c1c(ccc(c1)Cl)C)c1ccc(cc1)OC.[Cl-].ClCCl;;74;24;1.09;1.42;1.37;1.49;1.38;1.37;1.42;1.09;1.38;119.23;120.33;121.33;119.27;119.84;119.6;118.23;118.73;118.35;121.66;4.16;179.73;178.62;2.86;179.7;1.24;99.41;2.65;2.6;2.42;2.4;23.27;62.51;30.72;219.03;223.25;27.83;56.86;58.49;52.81;23.5;0.27;-0.3;0.34;-0.81;-0.81;0.34;-0.07;-0.08;-0.08;0.27;-0.25;-0.01;1100.12;1305.45;1283.34;3214.82;3201.38;54.41;90.96;120.03;6.64;3.51;2;1;1;5.64;1.35;5.5;5.64;1.35;5.5;2;1;1;534.62;545.48;10.81;1.66;514.59;2.39;0.12;0.1;0.09;1.35;49.31;58.28;-0.18;0.04;-0.27;-0.03;1745.18;183.77;249.99;229.41;44.78;1.38;219.24;2.13;0.91;0.33;0.26
73;R74;L2-7-S7;c1(cc2c(c3c1op(oc1c3c3ccccc3cc1C)N(C)[C@H](c1ccccc1P(c1ccccc1)c1ccccc1)C)cccc2)C.C(=N\c1ccccc1)(/c1ccccc1)\C.ClCCl;;93;24;1.09;1.41;1.38;1.49;1.38;1.38;1.41;1.08;1.38;118.49;118.13;122.59;118.57;119.32;120.78;119.27;117.08;118.37;122.08;0.06;178.78;178.3;1.39;176.71;0.51;52.7;2.59;2.57;2.39;2.38;23.29;62.28;35.8;162.16;151.78;36.19;60.96;58.97;60.24;23.76;0.27;-0.28;0.32;-0.83;-0.83;0.32;-0.09;-0.08;-0.28;0.27;-0.25;-0.02;1522.69;1279.47;1252.94;3229.41;3243.51;100.07;233.63;101.09;5.97;2.72;2;1;1;5.03;1.35;7.53;10.26;1.92;4.58;2;1;1;427.27;443.34;15.41;1.52;435.46;2.02;0.23;0.11;0.08;1.3;3.39;67.78;0.41;-0.7;-0.28;-0.05;1741;410.18;293.73;270.25;21.15;1.45;282.17;15.46;0.41;0.2;0.15
74;R75;L2-7-S38;c1(cc2c(c3c1op(oc1c3c3ccccc3cc1C)N(C)[C@H](c1ccccc1P(c1ccccc1)c1ccccc1)C)cccc2)C.C(=N\c1ccccc1)(/c1ccc(cc1)OC)\C.ClCCl;;93;24;1.49;1.42;1.38;1.49;1.38;1.36;1.44;1.49;1.38;119.72;118.47;121.79;121;121.18;125.46;119.72;113.46;121.82;121.07;3.68;178;176.73;7.78;172.25;8.84;88.54;2.82;2.77;2.41;2.34;42.33;44.09;27.61;233.54;211.91;35.69;65.35;57.79;49.75;43.69;-0.06;-0.08;0.37;-0.81;-0.8;0.38;-0.11;-0.09;-0.07;-0.06;-0.24;-0.01;1113.53;1246.67;1246.67;1283.57;1283.57;14.06;176.87;176.87;124.14;124.14;6.36;1.5;3.15;8.55;1.35;7.91;8.55;1.35;7.91;6.36;1.5;3.15;896.35;988.69;6.94;1.87;919.1;1.54;0.04;0.03;0.03;1.33;86.86;47.29;-0.47;0.05;-0.29;0.02;1753.9;139.7;172.01;145.99;44.2;1.28;143.14;6.34;2.04;1.01;0.92
75;R76;L2-7-S39;c1(cc2c(c3c1op(oc1c3c3ccccc3cc1C)N(C)[C@H](c1ccccc1P(c1ccccc1)c1ccccc1)C)cccc2)C.C(=N\c1ccccc1)(/c1ccc(cc1)Cl)\C.ClCCl;;92;24;1.09;1.43;1.85;1.5;1.39;1.86;1.42;1.09;1.39;119.37;116.92;118.89;121.57;120;117.79;123.01;122.67;119.54;119.51;8.88;176.85;173.4;2.68;179.27;2.68;79.94;2.89;3.03;2.8;2.89;22.91;32.27;21.11;279.74;297.99;19.05;17.47;20.3;34.65;23.92;0.27;-0.25;-0.33;0.9;0.91;-0.33;-0.02;-0.04;-0.25;0.27;-0.25;-0.02;1228.08;1197.56;1173.07;3219.05;3224.22;0.88;1.52;1.48;13.64;3.74;2;1;1;7.12;2.38;5.84;7.12;2.38;5.84;2;1;1;597.92;662.43;0;1.63;622.69;3.09;0.09;0.06;0.06;1.34;48.11;41.29;-0.33;-0.19;-0.29;-0.01;1731.33;57.47;175.98;158.55;31.35;1.24;148.16;6.54;2.47;0.74;0.62
76;R77;L2-7-S40;c1(cc2c(c3c1op(oc1c3c3ccccc3cc1C)N(C)[C@H](c1ccccc1P(c1ccccc1)c1ccccc1)C)cccc2)C.C(=N\c1ccccc1)(/c1ccc(cc1)N(=O)=O)\C.ClCCl;;94;24;1.09;1.41;1.37;1.49;1.38;1.38;1.41;1.09;1.38;118.29;117.64;122.25;118.76;118.48;119.61;120.11;117.91;118.46;122.45;0.25;178.41;178.36;0.04;178.64;0.49;52.67;2.58;2.59;2.39;2.39;23.3;61.12;34.48;141.59;169.68;35.55;58.62;59.44;62.03;23.31;0.27;-0.28;0.32;-0.83;-0.83;0.32;-0.08;-0.09;-0.28;0.27;-0.25;-0.02;1521.61;1252;1280.81;3225.36;3233.88;104.79;45.37;141.12;5.43;10.07;2;1;1;7.75;2.01;3.87;4.65;1.35;7.56;2;1;1;392.82;402.68;15.6;1.49;399.43;2.59;0.24;0.13;0.1;1.28;6.75;-100.15;0.35;-0.48;-0.27;-0.01;1754.67;408.16;283.18;270.82;10.39;1.4;239.32;3.34;0.87;0.24;0.22
77;R78;L2-7-S41;c1(cc2c(c3c1op(oc1c3c3ccccc3cc1C)N(C)[C@H](c1ccccc1P(c1ccccc1)c1ccccc1)C)cccc2)C.C(=N\c1ccccc1)(/c1cccc(c1)N(=O)=O)\C.ClCCl;;97;24;1.89;1.42;1.4;1.49;1.38;1.39;1.42;1.89;1.38;121.25;116.69;124.35;120.56;120.86;118.68;118.77;116.82;121.3;125.99;6.99;167.89;169.07;2.4;168.33;6.93;55.55;3.05;3.06;2.4;2.4;401.91;54.13;35.71;172.72;171.5;33.26;62.02;62.41;55.54;403.72;1.89;-0.55;0.33;-0.83;-0.83;0.34;-0.08;-0.07;-0.56;1.89;-0.26;-0.03;1498.8;1272.18;1272.18;786.91;786.91;65.57;128.32;128.32;37.77;37.77;6.38;4.21;6.49;5.23;1.35;3.89;4.92;1.35;3.98;6.38;4.21;6.49;825.6;886.42;42.16;1.85;865.09;4.21;0.06;0.03;0.03;1.34;37.39;66.75;-0.05;-0.42;-0.25;0.01;1726.81;56.68;360.62;341.21;12.12;1.53;316.45;5;0.38;0.15;0.12
78;R79;L2-7-S42;c1(cc2c(c3c1op(oc1c3c3ccccc3cc1C)N(C)[C@H](c1ccccc1P(c1ccccc1)c1ccccc1)C)cccc2)C.C(=N\c1ccccc1)(/c1ccc(c(c1)Cl)Cl)\C.ClCCl;;93;24;1.89;1.42;1.39;1.49;1.38;1.39;1.42;1.89;1.38;121.47;116.67;124.23;120.61;120.76;118.79;118.9;116.84;121.35;126.32;5.21;169.6;169.69;2.54;168.55;6.88;55.11;3.06;3.06;2.39;2.39;400.09;53.2;35.15;172.22;168.95;32.68;61.85;62.51;55.18;402.59;1.89;-0.55;0.34;-0.83;-0.83;0.34;-0.08;-0.08;-0.55;1.89;-0.26;-0.02;1500.07;1277.65;1277.65;787.23;787.23;52.93;94.94;94.94;28.57;28.57;6.38;4.21;6.49;5.23;1.35;3.89;4.92;1.35;3.98;6.38;4.21;6.49;822.06;885.7;40.55;1.84;865.09;3.54;0.06;0.03;0.03;1.28;7.31;-106.93;0.28;-0.63;-0.27;-0.01;1748.06;153.87;242.79;226.73;37.57;1.35;231.68;2.42;1.14;0.23;0.2
79;R80;L2-7-S43;c1(cc2c(c3c1op(oc1c3c3ccccc3cc1C)N(C)[C@H](c1ccccc1P(c1ccccc1)c1ccccc1)C)cccc2)C.C(=N\c1ccc(cc1)F)(/c1ccccc1)\C.ClCCl;;95;24;1.5;1.43;1.38;1.49;1.38;1.38;1.42;1.5;1.38;119.09;116.93;122.83;118.97;118.78;119.02;120.22;117.85;119.27;123.11;0.1;177.94;176.04;0.56;179.81;1.61;53.05;2.78;2.8;2.39;2.4;174.92;50.47;34.07;145.81;170.46;35.66;58.5;60.65;50.47;173.89;-0.71;-0.06;0.34;-0.83;-0.83;0.33;-0.07;-0.08;-0.06;-0.72;-0.25;-0.01;1514.86;1268.57;1281.21;1142.19;1133.9;69.11;55.67;224.42;73.62;49.91;2.99;1.5;2.04;9.68;1.35;11.12;10.56;1.66;8.01;2.99;1.5;2.04;661.57;689.16;14.09;1.75;661.72;4.6;0.1;0.04;0.04;1.28;14.59;-109.77;0.33;-0.49;-0.25;-0.01;1756.74;381.68;246.28;230.67;5.88;1.35;213.25;3.59;1.99;0.21;0.2
80;R81;L2-7-S44;c1(cc2c(c3c1op(oc1c3c3ccccc3cc1C)N(C)[C@H](c1ccccc1P(c1ccccc1)c1ccccc1)C)cccc2)C.C(=N\c1ccccc1)(/c1ccccc1C)\C.ClCCl;;62;24;1.49;1.42;1.39;1.49;1.37;1.39;1.42;1.48;1.38;122.23;117.5;123.11;119.87;119.58;118.41;119.2;117.66;121.28;126.91;1.32;173.56;171.61;0.77;178.88;0.06;54.18;2.86;2.84;2.41;2.41;43.03;50.39;42.92;186.61;186.33;42.39;60.01;60.76;51.17;43.33;-0.04;-0.08;0.33;-0.83;-0.83;0.32;-0.07;-0.07;-0.09;-0.04;-0.26;-0.03;1565.57;1076;1076;1502.89;1502.89;42.05;39.53;39.53;33.17;33.17;6.96;2.28;4.9;5.23;1.35;3.89;4.92;1.35;3.98;6.96;2.28;4.9;614.82;616.61;49.81;1.75;772.48;9.28;0.06;0.03;0.03;1.28;15.28;-110.72;0.33;-0.49;-0.25;-0.02;1757.56;294.91;316.51;304.21;12.93;1.45;275.35;1.74;1.07;0.11;0.1
81;R82;L2-7-S45;c1(cc2c(c3c1op(oc1c3c3ccccc3cc1C)N(C)[C@H](c1ccccc1P(c1ccccc1)c1ccccc1)C)cccc2)C.C(=N\c1c(cccc1)C)(/c1ccccc1)\C.ClCCl;;72;24;1.5;1.43;1.38;1.49;1.38;1.38;1.42;1.5;1.38;119.09;116.93;122.83;118.97;118.78;119.02;120.22;117.85;119.27;123.11;0.1;177.94;176.04;0.56;179.81;1.61;53.05;2.78;2.8;2.39;2.4;174.92;50.47;34.07;145.81;170.46;35.66;58.5;60.65;50.47;173.89;-0.71;-0.06;0.34;-0.83;-0.83;0.33;-0.07;-0.08;-0.06;-0.72;-0.25;-0.01;1514.86;1268.57;1281.21;1142.19;1133.9;69.11;55.67;224.42;73.62;49.91;2.99;1.5;2.04;9.68;1.35;11.12;10.56;1.66;8.01;2.99;1.5;2.04;661.57;689.16;14.09;1.75;661.72;4.6;0.1;0.04;0.04;1.28;16.51;-113.15;0.33;-0.48;-0.27;-0.02;1758.99;369.93;259.96;244.28;5.07;1.38;209.29;2.57;1.43;0.26;0.24