index;name;L-S;smiles;comment;%ee;T;BL32-1;BL1-6;BL6-34;BL5-12;BL12-11;BL33-11;BL11-16;BL16-31;BL6-5;BA32-1-6;BA1-6-34;BA1-6-5;BA6-5-12;BA5-12-11;BA12-11-33;BA5-6-34;BA33-11-16;BA11-16-31;BA12-11-16;DA32-1-6-34;DA32-1-6-5;DA1-6-5-12;DA5-12-11-33;DA12-11-16-31;DA33-11-16-31;DA6-5-12-11;NB32-34;NB33-31;NB1-34;NB33-16;NMR 32;NMR1;NMR6;NMR34;NMR33;NMR11;NMR12;NMR5;NMR16;NMR31;q32;q1;q6;q34;q33;q11;q12;q5;q16;q31;HOMO;LUMO;VF5-12;VF6-34;VF11-33;VF1-32;VF16-31;VI5-12;VI6-34;VI11-33;VI1-32;VI16-31;L1R1;B1R1;B5R1;L1R2;B1R2;B5R2;L1R3;B1R3;B5R3;L1R4;B1R4;B5R4;Area; Vol;PSA; Ovality;MW;dipolemoment;RCx;RCy;RCz;BL12-16S;NMR12-S;NMR16-S;q12-S;q16-S;HOMO-S;LUMO-S;VF12-16S;VI12-16S;Area-S; Vol-S;PSA-S; Ovality-S;MW-S;dipolemoment-S;RCx-S;RCy-S;RCz-S
82;R83;L2-7-S46;c1(cc2c(c3c1op(oc1c3c3ccccc3cc1C)N(C)[C@H](c1ccccc1P(c1ccccc1)c1ccccc1)C)cccc2)C.C(=N\c1c(cccc1)C(F)(F)F)(/c1ccccc1)\C.ClCCl;;78;24;1.5;1.43;1.38;1.49;1.38;1.38;1.42;1.5;1.38;119.09;116.93;122.83;118.97;118.78;119.02;120.22;117.85;119.27;123.11;0.1;177.94;176.04;0.56;179.81;1.61;53.05;2.78;2.8;2.39;2.4;174.92;50.47;34.07;145.81;170.46;35.66;58.5;60.65;50.47;173.89;-0.71;-0.06;0.34;-0.83;-0.83;0.33;-0.07;-0.08;-0.06;-0.72;-0.25;-0.01;1514.86;1268.57;1281.21;1142.19;1133.9;69.11;55.67;224.42;73.62;49.91;2.99;1.5;2.04;9.68;1.35;11.12;10.56;1.66;8.01;2.99;1.5;2.04;661.57;689.16;14.09;1.75;661.72;4.6;0.1;0.04;0.04;1.28;10.97;-105.8;0.35;-0.49;-0.28;-0.01;1769.66;500.41;272.39;257.6;5.3;1.39;263.26;3.77;0.73;0.23;0.2
83;R84;L2-7-S47;c1(cc2c(c3c1op(oc1c3c3ccccc3cc1C)N(C)[C@H](c1ccccc1P(c1ccccc1)c1ccccc1)C)cccc2)C.C(=N\c1ccccc1)(\C)/c1ccc2c(c1)ccc(c2)OC.ClCCl;;83;24;1.09;1.41;1.38;1.49;1.38;1.37;1.42;1.09;1.38;118.45;117.87;122.52;118.43;118.8;120.28;119.59;117.87;118.2;122.25;0.19;178.59;178.41;0.2;178.33;0.56;52.47;2.59;2.58;2.39;2.38;23.33;62.19;35.26;147.21;170.01;34.27;59.11;58.82;60.54;23.26;0.27;-0.28;0.32;-0.83;-0.83;0.32;-0.08;-0.08;-0.28;0.27;-0.25;-0.02;1525.15;1254.64;1254.64;3244.72;3233.94;100.47;141.97;141.97;3.54;3.85;2;1;1;7.84;1.45;3.87;4.55;1.35;6.76;2;1;1;377.23;386.01;15.78;1.47;385.4;2.93;0.25;0.15;0.11;1.34;87.83;44.15;-0.49;0.14;-0.27;0;1734.31;52.87;218.94;196.14;21.97;1.34;195.65;3.63;2.11;0.28;0.25
84;R85;L2-7-S48;c1(cc2c(c3c1op(oc1c3c3ccccc3cc1C)N(C)[C@H](c1ccccc1P(c1ccccc1)c1ccccc1)C)cccc2)C.C(=N\c1ccccc1)/c1cccs1.ClCCl;;85;24;1.5;1.43;1.38;1.49;1.38;1.38;1.42;1.5;1.38;119.09;116.93;122.83;118.97;118.78;119.02;120.22;117.85;119.27;123.11;0.1;177.94;176.04;0.56;179.81;1.61;53.05;2.78;2.8;2.39;2.4;174.92;50.47;34.07;145.81;170.46;35.66;58.5;60.65;50.47;173.89;-0.71;-0.06;0.34;-0.83;-0.83;0.33;-0.07;-0.08;-0.06;-0.72;-0.25;-0.01;1514.86;1268.57;1281.21;1142.19;1133.9;69.11;55.67;224.42;73.62;49.91;2.99;1.5;2.04;9.68;1.35;11.12;10.56;1.66;8.01;2.99;1.5;2.04;661.57;689.16;14.09;1.75;661.72;4.6;0.1;0.04;0.04;1.28;21.12;-100.79;0.31;-0.49;-0.25;-0.01;1745.65;485.89;230.93;213.81;6.31;1.34;201.29;3.43;1.91;0.29;0.27
85;R86;L2-7-S49;c1(cc2c(c3c1op(oc1c3c3ccccc3cc1C)N(C)[C@H](c1ccccc1P(c1ccccc1)c1ccccc1)C)cccc2)C.C(=N\c1c(cccc1C)C)/c1ccccc1.ClCCl;;96;24;1.09;1.43;1.85;1.5;1.39;1.86;1.42;1.09;1.39;119.36;116.94;118.88;121.55;119.99;117.77;123;122.69;119.53;119.51;8.89;176.85;173.43;2.8;179.24;2.76;79.95;2.89;3.03;2.8;2.89;23;53.96;41.44;366.24;383.3;39.66;37.48;42.35;55.16;23.88;0.27;-0.25;-0.33;0.9;0.91;-0.33;-0.02;-0.04;-0.25;0.27;-0.25;-0.02;1228.24;1197.77;1173.17;3218.98;3224.16;0.86;1.58;1.38;2.12;7.92;2;1;1;7.12;2.38;5.84;7.12;2.38;5.84;2;1;1;597.86;662.41;0;1.63;622.69;3.05;0.09;0.06;0.06;1.34;46.05;64.28;0.17;-0.23;-0.26;-0.03;1751.24;23.38;431.33;420.39;52.42;1.59;407.47;2.25;0.25;0.08;0.06
86;R87;L2-7-S50;c1(cc2c(c3c1op(oc1c3c3ccccc3cc1C)N(C)[C@H](c1ccccc1P(c1ccccc1)c1ccccc1)C)cccc2)C.C(=N\c1c(cccc1C)C)/c1ccc(cc1)C.ClCCl;;94;24;1.09;1.42;1.37;1.49;1.38;1.37;1.42;1.09;1.38;118.99;119.28;121.78;119.46;119.67;123.36;118.94;115.05;117.83;121.46;0.93;178.68;176.98;3.31;179.43;3.3;63.66;2.63;2.52;2.41;2.35;23.73;62;29.15;225.52;227.07;33.37;61.51;60.66;57.44;23.63;0.27;-0.29;0.35;-0.8;-0.81;0.35;-0.09;-0.09;-0.27;0.27;-0.25;-0.02;1100.12;1305.45;1283.34;3214.82;3201.38;54.41;90.96;120.03;6.64;3.51;2;1;1;8.55;1.35;7.91;8.55;1.35;7.91;2;1;1;799.25;829.05;6.92;1.87;766.9;1.52;0.06;0.04;0.04;1.33;85.87;48.18;-0.47;0.04;-0.29;0.02;1747.17;183.33;172.14;146;44.24;1.28;143.14;7.35;2.03;1.01;0.92
87;R88;L2-7-S51;c1(cc2c(c3c1op(oc1c3c3ccccc3cc1C)N(C)[C@H](c1ccccc1P(c1ccccc1)c1ccccc1)C)cccc2)C.C(=N\c1c(cccc1C)C)(/c1ccc(cc1)Br)\C.ClCCl;;96;24;1.5;1.43;1.38;1.49;1.38;1.38;1.42;1.5;1.38;119.09;116.93;122.83;118.97;118.78;119.02;120.22;117.85;119.27;123.11;0.1;177.94;176.04;0.56;179.81;1.61;53.05;2.78;2.8;2.39;2.4;174.92;50.47;34.07;145.81;170.46;35.66;58.5;60.65;50.47;173.89;-0.71;-0.06;0.34;-0.83;-0.83;0.33;-0.07;-0.08;-0.06;-0.72;-0.25;-0.01;1514.86;1268.57;1281.21;1142.19;1133.9;69.11;55.67;224.42;73.62;49.91;2.99;1.5;2.04;9.68;1.35;11.12;10.56;1.66;8.01;2.99;1.5;2.04;661.57;689.16;14.09;1.75;661.72;4.6;0.1;0.04;0.04;1.28;15;-118.98;0.33;-0.48;-0.25;-0.01;1767.35;390.36;297.18;280.28;5.03;1.43;302.21;2.95;1.07;0.11;0.11
88;R89;L2-7-S52;c1(cc2c(c3c1op(oc1c3c3ccccc3cc1C)N(C)[C@H](c1ccccc1P(c1ccccc1)c1ccccc1)C)cccc2)C.C(=N\c1c(cccc1C)C)(/c1ccc(cc1)N(=O)=O)\C.ClCCl;;98;24;1.89;1.42;1.4;1.49;1.38;1.39;1.42;1.89;1.38;121.25;116.69;124.35;120.56;120.86;118.68;118.77;116.82;121.3;125.99;6.99;167.89;169.07;2.4;168.33;6.93;55.55;3.05;3.06;2.4;2.4;401.91;54.13;35.71;172.72;171.5;33.26;62.02;62.41;55.54;403.72;1.89;-0.55;0.33;-0.83;-0.83;0.34;-0.08;-0.07;-0.56;1.89;-0.26;-0.03;1498.8;1272.18;1272.18;786.91;786.91;65.57;128.32;128.32;37.77;37.77;6.38;4.21;6.49;5.23;1.35;3.89;4.92;1.35;3.98;6.38;4.21;6.49;825.6;886.42;42.16;1.85;865.09;4.21;0.06;0.03;0.03;1.34;31.47;66.75;-0.05;-0.43;-0.26;0;1711.29;36.6;433.79;420.26;10.61;1.6;374.56;1.93;0.38;0.08;0.07
89;R90;L2-7-S53;c1(cc2c(c3c1op(oc1c3c3ccccc3cc1C)N(C)[C@H](c1ccccc1P(c1ccccc1)c1ccccc1)C)cccc2)C.C(=N\c1c(cccc1C)C)(/c1cccc(c1)N(=O)=O)\C.ClCCl;;98;24;1.09;1.41;1.38;1.49;1.38;1.38;1.41;1.09;1.38;118.5;117.86;122.5;118.55;118.62;120.11;119.62;117.86;118.34;122.34;0.3;178.66;178.73;0.87;178.3;0.59;52.85;2.59;2.58;2.39;2.39;23.32;62.09;35.87;141.95;172.27;34.95;59.14;58.58;60.9;23.33;0.27;-0.28;0.32;-0.83;-0.83;0.32;-0.08;-0.09;-0.28;0.27;-0.25;-0.02;1526.07;1384.71;1384.71;3228.01;3224.58;102.04;176.82;176.82;7.88;3.18;2;1;1;11.65;2.09;5.32;4.58;1.35;11.78;2;1;1;466.57;480.84;17.67;1.57;476.52;1.18;0.21;0.06;0.05;1.34;60.87;46.82;-0.23;0.14;-0.26;0.01;1755.29;52.32;242.74;219.07;23.25;1.38;189.26;4.78;0.86;0.51;0.36
90;R91;L2-7-S54;c1(cc2c(c3c1op(oc1c3c3ccccc3cc1C)N(C)[C@H](c1ccccc1P(c1ccccc1)c1ccccc1)C)cccc2)C.C(=N\c1c(cccc1C)C)(/c1cccc(c1)OC)\C.ClCCl;;95;24;1.09;1.43;1.85;1.5;1.39;1.86;1.42;1.09;1.39;119.37;116.92;118.89;121.57;120;117.79;123.01;122.67;119.54;119.51;8.88;176.85;173.4;2.68;179.27;2.68;79.94;2.89;3.03;2.8;2.89;22.91;32.27;21.11;279.74;297.99;19.05;17.47;20.3;34.65;23.92;0.27;-0.25;-0.33;0.9;0.91;-0.33;-0.02;-0.04;-0.25;0.27;-0.25;-0.02;1228.08;1197.56;1173.07;3219.05;3224.22;0.88;1.52;1.48;13.64;3.74;2;1;1;7.12;2.38;5.84;7.12;2.38;5.84;2;1;1;597.92;662.43;0;1.63;622.69;3.09;0.09;0.06;0.06;1.34;34.22;56.81;-0.11;-0.23;-0.32;0.01;1755.22;283.49;141.76;118.05;48.12;1.22;116.12;8.27;2.49;1.81;1.1
91;R92;L2-7-S55;c1(cc2c(c3c1op(oc1c3c3ccccc3cc1C)N(C)[C@H](c1ccccc1P(c1ccccc1)c1ccccc1)C)cccc2)C.C(=N\c1c(cccc1C)C)(/c1cc2c(cc1)cc(cc2)OC)\C.ClCCl;;92;24;1.09;1.41;1.38;1.49;1.38;1.38;1.41;1.09;1.38;118.51;118.02;122.63;118.38;118.95;119.88;119.33;117.35;118.59;122.75;0.14;178.69;177.79;1.21;178.94;0.63;52.35;2.59;2.58;2.39;2.39;23.31;62.34;37.5;151.47;149.26;36.67;59.33;8.48;61.2;23.26;0.27;-0.28;0.31;-0.83;-0.83;0.32;-0.08;-0.08;-0.27;0.27;-0.25;-0.02;1521.54;1277.51;1249.12;3228.44;3237.58;88.9;182.93;118.04;3.17;3.34;2;1;1;5.26;1.35;6.98;7.24;1.35;6.34;2;1;1;393.55;392.95;22.61;1.52;388.4;1.19;0.26;0.13;0.1;1.34;42.3;87.39;0.15;-0.5;-0.26;-0.01;1734.78;47.04;250.47;233.86;22.08;1.36;211.26;5.17;1.68;0.24;0.21
92;R93;L2-7-S56;c1(cc2c(c3c1op(oc1c3c3ccccc3cc1C)N(C)[C@H](c1ccccc1P(c1ccccc1)c1ccccc1)C)cccc2)C.C(=N\c1c(cccc1C)C)(/C(C)C)\C.ClCCl;;84;24;1.49;1.42;1.39;1.49;1.38;1.39;1.42;1.5;1.38;120.43;116.32;123.86;120.18;119.36;118.87;119.71;116.69;120.16;131.9;7.36;176.48;177.12;1;172.77;8.12;49.8;2.8;2.8;2.39;2.39;51.47;48.52;38.95;184.03;178.96;39.02;61.19;61.49;49.67;51.34;-0.06;-0.07;0.33;-0.83;-0.83;0.33;-0.07;-0.07;-0.07;-0.07;-0.26;-0.03;1503.56;1267.49;1273.27;1536.7;1536.7;34.32;16.35;56.47;12.59;12.59;8.48;3.09;5.68;5.23;1.35;3.89;4.92;1.35;3.98;8.48;3.09;5.68;783.2;811.15;42.5;1.86;752.98;4.13;0.06;0.04;0.03;1.28;18.12;-116.77;0.32;-0.47;-0.24;-0.02;1763.71;242.18;316.34;304.07;12.82;1.45;275.35;1.46;1.07;0.11;0.1
93;R94;L2-7-S57;c1(cc2c(c3c1op(oc1c3c3ccccc3cc1C)N(C)[C@H](c1ccccc1P(c1ccccc1)c1ccccc1)C)cccc2)C.C(=N\c1c(cccc1C)C)/COC.ClCCl;;92;24;1.5;1.43;1.38;1.49;1.38;1.38;1.42;1.5;1.38;119.09;116.93;122.83;118.97;118.78;119.02;120.22;117.85;119.27;123.11;0.1;177.94;176.04;0.56;179.81;1.61;53.05;2.78;2.8;2.39;2.4;174.92;50.47;34.07;145.81;170.46;35.66;58.5;60.65;50.47;173.89;-0.71;-0.06;0.34;-0.83;-0.83;0.33;-0.07;-0.08;-0.06;-0.72;-0.25;-0.01;1514.86;1268.57;1281.21;1142.19;1133.9;69.11;55.67;224.42;73.62;49.91;2.99;1.5;2.04;9.68;1.35;11.12;10.56;1.66;8.01;2.99;1.5;2.04;661.57;689.16;14.09;1.75;661.72;4.6;0.1;0.04;0.04;1.27;5.88;-112.25;0.33;-0.49;-0.25;-0.01;1802.87;286.08;248.58;224.67;12.6;1.39;191.27;2.95;1.4;0.38;0.32
94;R95;L2-7-S58;c1(cc2c(c3c1op(oc1c3c3ccccc3cc1C)N(C)[C@H](c1ccccc1P(c1ccccc1)c1ccccc1)C)cccc2)C.C(=N\c1c(cccc1C)C)(/C(=O)OC)\C.ClCCl;;95;24;1.09;1.41;1.38;1.49;1.38;1.37;1.41;1.09;1.38;118.47;117.77;122.55;118.5;118.63;120.18;119.65;117.77;118.3;122.3;0.64;178.79;178.7;0.71;178.28;0.65;52.59;2.59;2.58;2.39;2.39;23.35;62.15;35.66;140.62;171.02;34.78;59.36;58.71;60.88;23.38;0.27;-0.28;0.32;-0.83;-0.83;0.32;-0.08;-0.09;-0.28;0.27;-0.25;-0.02;1523.48;1386.47;1386.47;3224.64;3230.77;95.25;157.78;157.78;5.26;8.49;2;1;1;6.57;1.35;3.87;4.58;1.35;5.49;2;1;1;354.56;360.63;15.63;1.45;359.37;2.33;0.26;0.2;0.13;1.35;57.04;62.91;-0.2;0.05;-0.27;-0.02;1751.43;44.03;251.68;229.55;41.26;1.39;219.24;2.78;0.77;0.35;0.26
95;R96;L2-8-S2;c1cc2c(c3c1op(oc1c3c3ccccc3cc1)N(C)C)cccc2.C=C(NC(=O)C)C(=O)OC.ClCCl;;97;24;1.09;1.41;1.37;1.49;1.38;1.38;1.41;1.09;1.38;118.29;117.64;122.25;118.76;118.48;119.61;120.11;117.91;118.46;122.45;0.25;178.41;178.36;0.04;178.64;0.49;52.67;2.58;2.59;2.39;2.39;23.3;61.12;34.48;141.59;169.68;35.55;58.62;59.44;62.03;23.31;0.27;-0.28;0.32;-0.83;-0.83;0.32;-0.08;-0.09;-0.28;0.27;-0.25;-0.02;1521.61;1252;1280.81;3225.36;3233.88;104.79;45.37;141.12;5.43;10.07;2;1;1;7.75;2.01;3.87;4.65;1.35;7.56;2;1;1;392.82;402.68;15.6;1.49;399.43;2.59;0.24;0.13;0.1;1.28;13.17;-106.1;0.34;-0.48;-0.28;-0.06;1766.18;320.05;303.02;284.41;10.69;1.45;293.29;5.53;0.88;0.11;0.11
96;R97;L2-8-S59;c1cc2c(c3c1op(oc1c3c3ccccc3cc1)N(C)C)cccc2.C(=C(\NC(=O)C)/C(=O)OC)\c1ccccc1.ClCCl;;95;24;1.09;1.43;1.85;1.5;1.39;1.86;1.42;1.09;1.39;119.37;116.92;118.89;121.57;120;117.79;123.01;122.67;119.54;119.51;8.88;176.85;173.4;2.68;179.27;2.68;79.94;2.89;3.03;2.8;2.89;22.91;32.27;21.11;279.74;297.99;19.05;17.47;20.3;34.65;23.92;0.27;-0.25;-0.33;0.9;0.91;-0.33;-0.02;-0.04;-0.25;0.27;-0.25;-0.02;1228.08;1197.56;1173.07;3219.05;3224.22;0.88;1.52;1.48;13.64;3.74;2;1;1;7.12;2.38;5.84;7.12;2.38;5.84;2;1;1;597.92;662.43;0;1.63;622.69;3.09;0.09;0.06;0.06;1.34;16.27;70.84;0.11;-0.42;-0.32;0;1728.23;354.9;187.54;159.32;53.11;1.32;158.15;7.23;2;0.55;0.46
97;R98;L2-8-S3;c1cc2c(c3c1op(oc1c3c3ccccc3cc1)N(C)C)cccc2.C(=C)(c1ccccc1)NC(=O)C.ClCCl;;85;24;1.09;1.41;1.38;1.49;1.38;1.37;1.41;1.09;1.38;118.48;117.78;122.54;118.5;118.65;120.16;119.65;117.78;118.28;122.33;0.3;178.6;178.54;0.5;178.49;0.64;52.7;2.59;2.58;2.39;2.38;23.31;61.96;35.28;144.98;171.09;34.37;59.61;58.63;61.01;23.33;0.27;-0.28;0.32;-0.83;-0.83;0.32;-0.08;-0.09;-0.28;0.27;-0.25;-0.02;1525.7;1384.93;1384.93;3229.56;3224.53;97.82;171.4;171.4;4.78;5.87;2;1;1;7.17;1.96;3.87;5.39;1.35;6.38;2;1;1;392.51;397.44;15.44;1.5;387.42;2.49;0.24;0.15;0.11;1.34;60.87;46.82;-0.23;0.14;-0.26;0.01;1755.29;52.32;242.74;219.07;23.25;1.38;189.26;4.78;0.86;0.51;0.36
98;R99;L2-8-S4;c1cc2c(c3c1op(oc1c3c3ccccc3cc1)N(C)C)cccc2.C(=C)(c1ccc(cc1)Cl)NC(=O)C.ClCCl;;88;24;1.09;1.43;1.85;1.5;1.39;1.86;1.42;1.09;1.39;119.37;116.92;118.89;121.57;120;117.79;123.01;122.67;119.54;119.51;8.88;176.85;173.4;2.68;179.27;2.68;79.94;2.89;3.03;2.8;2.89;22.91;32.27;21.11;279.74;297.99;19.05;17.47;20.3;34.65;23.92;0.27;-0.25;-0.33;0.9;0.91;-0.33;-0.02;-0.04;-0.25;0.27;-0.25;-0.02;1228.08;1197.56;1173.07;3219.05;3224.22;0.88;1.52;1.48;13.64;3.74;2;1;1;7.12;2.38;5.84;7.12;2.38;5.84;2;1;1;597.92;662.43;0;1.63;622.69;3.09;0.09;0.06;0.06;1.35;10;69.71;0.11;-0.42;-0.32;0;1728.57;400.13;208.65;177.93;53.27;1.36;172.18;5.57;2.7;0.3;0.29
99;R100;L2-8-S60;c1cc2c(c3c1op(oc1c3c3ccccc3cc1)N(C)C)cccc2.C=C(NC(=O)C)c1ccc(cc1)OC.ClCCl;;81;24;1.5;1.42;1.39;1.49;1.38;1.39;1.42;1.5;1.38;120.4;116.47;123.92;120.2;119.52;118.8;119.49;116.76;120.61;130.24;7.18;176.84;176.8;0.16;174.86;6.43;50.39;2.81;2.81;2.4;2.4;51.33;49.49;39.46;184.34;179.71;39.23;61.67;61.64;49.45;51.56;-0.06;-0.07;0.33;-0.83;-0.83;0.32;-0.07;-0.07;-0.07;-0.07;-0.26;-0.03;1500.68;1271.29;1271.29;1535.57;1535.57;41.23;87.21;87.21;12.32;12.32;8.48;3.09;5.68;5.23;1.35;3.89;4.92;1.35;3.98;8.48;3.09;5.68;786.13;811.89;44.04;1.87;752.98;4.51;0.06;0.04;0.03;1.28;16.16;-111.2;0.33;-0.49;-0.25;-0.01;1755.16;325.59;269.69;252.96;12.81;1.39;225.29;1.81;1.87;0.17;0.16
100;R101;L2-8-S61;c1cc2c(c3c1op(oc1c3c3ccccc3cc1)N(C)C)cccc2.C(=C(\NC(=O)C)/c1ccccc1)\CC.ClCCl;;80;24;1.89;1.42;1.39;1.49;1.38;1.39;1.42;1.9;1.38;119.14;116.45;124.75;119.96;120.77;118.69;118.66;116.75;122.34;126.84;10.59;165.02;168.51;0.03;168.84;6.8;55.25;3;3.09;2.39;2.39;404.38;54.59;34.9;172.45;171.4;32.81;62.04;62.14;55.09;400.77;1.89;-0.55;0.33;-0.83;-0.83;0.34;-0.07;-0.07;-0.55;1.89;-0.26;-0.03;1498.77;1276.5;1276.5;786.32;786.32;62.49;123.35;123.35;26.67;26.67;6.38;4.21;6.49;5.23;1.35;3.89;4.92;1.35;3.98;6.38;4.21;6.49;820.72;885.82;40.88;1.84;865.09;3.62;0.06;0.03;0.03;1.28;4.8;-97.97;0.28;-0.65;-0.27;0;1742.55;195.62;227.34;213.21;37.61;1.32;197.24;2.72;1.26;0.38;0.33
101;R102;L2-8-S62;c1cc2c(c3c1op(oc1c3c3ccccc3cc1)N(C)C)cccc2.C(=C(\NC(=O)C)/c1ccccc1)/CC.ClCCl;;6;24;1.09;1.41;1.38;1.49;1.38;1.37;1.41;1.09;1.38;118.47;117.77;122.55;118.5;118.63;120.18;119.65;117.77;118.3;122.3;0.64;178.79;178.7;0.71;178.28;0.65;52.59;2.59;2.58;2.39;2.39;23.35;62.15;35.66;140.62;171.02;34.78;59.36;58.71;60.88;23.38;0.27;-0.28;0.32;-0.83;-0.83;0.32;-0.08;-0.09;-0.28;0.27;-0.25;-0.02;1523.48;1386.47;1386.47;3224.64;3230.77;95.25;157.78;157.78;5.26;8.49;2;1;1;6.57;1.35;3.87;4.58;1.35;5.49;2;1;1;354.56;360.63;15.63;1.45;359.37;2.33;0.26;0.2;0.13;1.34;66.4;50.62;-0.25;0.14;-0.26;0.01;1756.08;12.36;241.02;218.75;22.35;1.37;189.26;4.71;0.85;0.48;0.33
102;R103;L2-8-S1;c1cc2c(c3c1op(oc1c3c3ccccc3cc1)N(C)C)cccc2.C=C(CC(=O)OC)C(=O)OC.ClCCl;;92;24;1.89;1.42;1.39;1.49;1.38;1.39;1.42;1.89;1.38;121.47;116.67;124.23;120.61;120.76;118.79;118.9;116.84;121.35;126.32;5.21;169.6;169.69;2.54;168.55;6.88;55.11;3.06;3.06;2.39;2.39;400.09;53.2;35.15;172.22;168.95;32.68;61.85;62.51;55.18;402.59;1.89;-0.55;0.34;-0.83;-0.83;0.34;-0.08;-0.08;-0.55;1.89;-0.26;-0.02;1500.07;1277.65;1277.65;787.23;787.23;52.93;94.94;94.94;28.57;28.57;6.38;4.21;6.49;5.23;1.35;3.89;4.92;1.35;3.98;6.38;4.21;6.49;822.06;885.7;40.55;1.84;865.09;3.54;0.06;0.03;0.03;1.28;6.02;-103.42;0.28;-0.63;-0.27;0;1744.62;145.59;247.25;231.39;37.66;1.36;211.26;2.92;0.95;0.34;0.29
103;R104;L2-9-S2;c1cc2c(c3c1op(oc1c3c3ccccc3cc1)N(CC)CC)cccc2.C=C(NC(=O)C)C(=O)OC.ClCCl;;94;24;1.49;1.42;1.39;1.49;1.38;1.39;1.42;1.49;1.38;120.86;117.03;123.74;119.32;118.94;119.22;119.2;116.97;120.52;129.27;0.78;178.87;178.65;0.79;178.11;0.53;52.45;2.82;2.81;2.39;2.39;51.53;49.44;39.7;184.4;178.22;38.49;60.68;60.86;50.33;51.01;-0.01;-0.08;0.33;-0.82;-0.83;0.33;-0.07;-0.07;-0.09;-0.01;-0.23;-0.04;1505.32;1276.54;1276.54;1516.81;1516.81;47.38;119.67;119.67;6.97;6.97;6.4;1.53;5.61;5.23;1.35;3.89;4.92;1.35;3.98;6.4;1.53;5.61;650.7;692.74;49.81;1.72;700.73;3.71;0.07;0.04;0.04;1.34;38.97;81.21;0.14;-0.46;-0.26;-0.02;1737.13;95.22;247.09;233.04;25.5;1.35;211.26;3.8;1.03;0.33;0.28
104;R105;L2-9-S59;c1cc2c(c3c1op(oc1c3c3ccccc3cc1)N(CC)CC)cccc2.C(=C(\NC(=O)C)/C(=O)OC)\c1ccccc1.ClCCl;;97;24;1.09;1.41;1.37;1.49;1.38;1.38;1.41;1.09;1.38;118.29;117.64;122.25;118.76;118.48;119.61;120.11;117.91;118.46;122.45;0.25;178.41;178.36;0.04;178.64;0.49;52.67;2.58;2.59;2.39;2.39;23.3;61.12;34.48;141.59;169.68;35.55;58.62;59.44;62.03;23.31;0.27;-0.28;0.32;-0.83;-0.83;0.32;-0.08;-0.09;-0.28;0.27;-0.25;-0.02;1521.61;1252;1280.81;3225.36;3233.88;104.79;45.37;141.12;5.43;10.07;2;1;1;7.75;2.01;3.87;4.65;1.35;7.56;2;1;1;392.82;402.68;15.6;1.49;399.43;2.59;0.24;0.13;0.1;1.28;13.76;-100.38;0.34;-0.48;-0.28;-0.06;1762.89;361.39;283.35;266.23;10.71;1.42;259.74;4.77;1.04;0.15;0.14
105;R106;L2-9-S3;c1cc2c(c3c1op(oc1c3c3ccccc3cc1)N(CC)CC)cccc2.C(=C)(c1ccccc1)NC(=O)C.ClCCl;;94;24;1.09;1.41;1.38;1.49;1.38;1.38;1.41;1.09;1.38;118.52;117.94;122.49;118.43;118.56;120.05;119.55;117.94;118.36;122.34;0.22;178.66;178.87;0.51;178.71;0.63;52.79;2.59;2.58;2.39;2.39;23.34;62.04;35.74;141.47;172.69;34.82;59.31;58.56;61.09;23.28;0.27;-0.28;0.32;-0.83;-0.83;0.32;-0.08;-0.09;-0.28;0.27;-0.25;-0.02;1526.26;1384.46;1384.46;3232.51;3223.89;97.91;163.72;163.72;6.73;5.36;2;1;1;9.98;2.57;3.87;5.29;1.35;9.75;2;1;1;434.28;449.7;15.51;1.53;447.47;2.21;0.23;0.08;0.07;1.34;90.82;43.29;-0.51;0.15;-0.25;0.02;1731.24;74.34;232.88;209.46;28.92;1.37;191.23;5.49;2.12;0.28;0.26
106;R107;L2-9-S4;c1cc2c(c3c1op(oc1c3c3ccccc3cc1)N(CC)CC)cccc2.C(=C)(c1ccc(cc1)Cl)NC(=O)C.ClCCl;;90;24;1.09;1.41;1.38;1.49;1.38;1.37;1.41;1.09;1.38;118.48;117.78;122.54;118.5;118.65;120.16;119.65;117.78;118.28;122.33;0.3;178.6;178.54;0.5;178.49;0.64;52.7;2.59;2.58;2.39;2.38;23.31;61.96;35.28;144.98;171.09;34.37;59.61;58.63;61.01;23.33;0.27;-0.28;0.32;-0.83;-0.83;0.32;-0.08;-0.09;-0.28;0.27;-0.25;-0.02;1525.7;1384.93;1384.93;3229.56;3224.53;97.82;171.4;171.4;4.78;5.87;2;1;1;7.17;1.96;3.87;5.39;1.35;6.38;2;1;1;392.51;397.44;15.44;1.5;387.42;2.49;0.24;0.15;0.11;1.34;87.83;44.15;-0.49;0.14;-0.27;0;1734.31;52.87;218.94;196.14;21.97;1.34;195.65;3.63;2.11;0.28;0.25
107;R108;L2-9-S60;c1cc2c(c3c1op(oc1c3c3ccccc3cc1)N(CC)CC)cccc2.C=C(NC(=O)C)c1ccc(cc1)OC.ClCCl;;87;24;1.09;1.41;1.38;1.49;1.38;1.37;1.41;1.09;1.38;118.48;117.78;122.54;118.5;118.65;120.16;119.65;117.78;118.28;122.33;0.3;178.6;178.54;0.5;178.49;0.64;52.7;2.59;2.58;2.39;2.38;23.31;61.96;35.28;144.98;171.09;34.37;59.61;58.63;61.01;23.33;0.27;-0.28;0.32;-0.83;-0.83;0.32;-0.08;-0.09;-0.28;0.27;-0.25;-0.02;1525.7;1384.93;1384.93;3229.56;3224.53;97.82;171.4;171.4;4.78;5.87;2;1;1;7.17;1.96;3.87;5.39;1.35;6.38;2;1;1;392.51;397.44;15.44;1.5;387.42;2.49;0.24;0.15;0.11;1.34;90.82;43.29;-0.51;0.15;-0.25;0.02;1731.24;74.34;232.88;209.46;28.92;1.37;191.23;5.49;2.12;0.28;0.26
108;R109;L2-9-S61;c1cc2c(c3c1op(oc1c3c3ccccc3cc1)N(CC)CC)cccc2.C(=C(\NC(=O)C)/c1ccccc1)\CC.ClCCl;;85;24;1.09;1.41;1.38;1.49;1.38;1.37;1.42;1.09;1.38;118.45;117.87;122.52;118.43;118.8;120.28;119.59;117.87;118.2;122.25;0.19;178.59;178.41;0.2;178.33;0.56;52.47;2.59;2.58;2.39;2.38;23.33;62.19;35.26;147.21;170.01;34.27;59.11;58.82;60.54;23.26;0.27;-0.28;0.32;-0.83;-0.83;0.32;-0.08;-0.08;-0.28;0.27;-0.25;-0.02;1525.15;1254.64;1254.64;3244.72;3233.94;100.47;141.97;141.97;3.54;3.85;2;1;1;7.84;1.45;3.87;4.55;1.35;6.76;2;1;1;377.23;386.01;15.78;1.47;385.4;2.93;0.25;0.15;0.11;1.34;80.04;53.6;-0.44;0.03;-0.29;0;1743.25;89.92;175.49;146.86;41.4;1.3;143.14;3.51;3.38;0.69;0.58