index;name;L-S;smiles;comment;%ee;T;BL32-1;BL1-6;BL6-34;BL5-12;BL12-11;BL33-11;BL11-16;BL16-31;BL6-5;BA32-1-6;BA1-6-34;BA1-6-5;BA6-5-12;BA5-12-11;BA12-11-33;BA5-6-34;BA33-11-16;BA11-16-31;BA12-11-16;DA32-1-6-34;DA32-1-6-5;DA1-6-5-12;DA5-12-11-33;DA12-11-16-31;DA33-11-16-31;DA6-5-12-11;NB32-34;NB33-31;NB1-34;NB33-16;NMR 32;NMR1;NMR6;NMR34;NMR33;NMR11;NMR12;NMR5;NMR16;NMR31;q32;q1;q6;q34;q33;q11;q12;q5;q16;q31;HOMO;LUMO;VF5-12;VF6-34;VF11-33;VF1-32;VF16-31;VI5-12;VI6-34;VI11-33;VI1-32;VI16-31;L1R1;B1R1;B5R1;L1R2;B1R2;B5R2;L1R3;B1R3;B5R3;L1R4;B1R4;B5R4;Area; Vol;PSA; Ovality;MW;dipolemoment;RCx;RCy;RCz;BL12-16S;NMR12-S;NMR16-S;q12-S;q16-S;HOMO-S;LUMO-S;VF12-16S;VI12-16S;Area-S; Vol-S;PSA-S; Ovality-S;MW-S;dipolemoment-S;RCx-S;RCy-S;RCz-S
190;R199;L3-1-S87;c1cc2c(c(c1P(c1ccccc1)c1ccccc1)c1c(ccc3c1cccc3)P(c1ccccc1)c1ccccc1)cccc2.C(=C\1/c2c(CCN1C(=O)C)cc(c(c2)OCc1ccccc1)OCc1ccccc1)\c1cc(c(c(c1)OC)OC)OC.OCC;;96;23;1.5;1.43;1.38;1.49;1.38;1.38;1.42;1.5;1.38;119.09;116.93;122.83;118.97;118.78;119.02;120.22;117.85;119.27;123.11;0.1;177.94;176.04;0.56;179.81;1.61;53.05;2.78;2.8;2.39;2.4;174.92;50.47;34.07;145.81;170.46;35.66;58.5;60.65;50.47;173.89;-0.71;-0.06;0.34;-0.83;-0.83;0.33;-0.07;-0.08;-0.06;-0.72;-0.25;-0.01;1514.86;1268.57;1281.21;1142.19;1133.9;69.11;55.67;224.42;73.62;49.91;2.99;1.5;2.04;9.68;1.35;11.12;10.56;1.66;8.01;2.99;1.5;2.04;661.57;689.16;14.09;1.75;661.72;4.6;0.1;0.04;0.04;1.28;14.34;-115.77;0.33;-0.48;-0.28;-0.05;1767.26;408.91;278.31;262.4;5.04;1.4;223.32;2.98;1.12;0.25;0.23
191;R200;L3-1-S88;c1cc2c(c(c1P(c1ccccc1)c1ccccc1)c1c(ccc3c1cccc3)P(c1ccccc1)c1ccccc1)cccc2.C(=C\1/c2c(CCN1C(=O)C)cc(c(c2)C(=O)C)C)\c1ccc(c(c1)C(=O)OC)OC.OCC;;96;23;1.89;1.42;1.39;1.49;1.38;1.39;1.42;1.89;1.38;121.47;116.67;124.23;120.61;120.76;118.79;118.9;116.84;121.35;126.32;5.21;169.6;169.69;2.54;168.55;6.88;55.11;3.06;3.06;2.39;2.39;400.09;53.2;35.15;172.22;168.95;32.68;61.85;62.51;55.18;402.59;1.89;-0.55;0.34;-0.83;-0.83;0.34;-0.08;-0.08;-0.55;1.89;-0.26;-0.02;1500.07;1277.65;1277.65;787.23;787.23;52.93;94.94;94.94;28.57;28.57;6.38;4.21;6.49;5.23;1.35;3.89;4.92;1.35;3.98;6.38;4.21;6.49;822.06;885.7;40.55;1.84;865.09;3.54;0.06;0.03;0.03;1.28;6.23;-103.79;0.28;-0.63;-0.26;-0.01;1747.18;161.25;326.81;314.72;37.65;1.46;287.36;2.82;0.65;0.12;0.11
192;R201;L3-1-S89;c1cc2c(c(c1P(c1ccccc1)c1ccccc1)c1c(ccc3c1cccc3)P(c1ccccc1)c1ccccc1)cccc2.C=C1c2c(CCN1C(=O)C)cc(c(c2)C)C.OCC;;96;23;1.09;1.43;1.85;1.5;1.39;1.86;1.42;1.09;1.39;119.36;116.94;118.88;121.55;119.99;117.77;123;122.69;119.53;119.51;8.89;176.85;173.43;2.8;179.24;2.76;79.95;2.89;3.03;2.8;2.89;23;53.96;41.44;366.24;383.3;39.66;37.48;42.35;55.16;23.88;0.27;-0.25;-0.33;0.9;0.91;-0.33;-0.02;-0.04;-0.25;0.27;-0.25;-0.02;1228.24;1197.77;1173.17;3218.98;3224.16;0.86;1.58;1.38;2.12;7.92;2;1;1;7.12;2.38;5.84;7.12;2.38;5.84;2;1;1;597.86;662.41;0;1.63;622.69;3.05;0.09;0.06;0.06;1.35;45.77;64.2;0.17;-0.23;-0.25;-0.02;1746.86;40.86;586.43;591.38;42.14;1.72;565.67;6.01;0.16;0.03;0.03
193;R202;L4-3-S90;c1(cc2c(c(c1OP(c1ccccc1)c1ccccc1)c1c(c(cc3c1cccc3)c1ccccc1)OP(c1ccccc1)c1ccccc1)cccc2)c1ccccc1.C(=C(\NC(=O)C)/c1ccccc1)\C(=O)OC.OCC;;98;50;1.89;1.42;1.4;1.49;1.38;1.39;1.42;1.89;1.38;121.25;116.69;124.35;120.56;120.86;118.68;118.77;116.82;121.3;125.99;6.99;167.89;169.07;2.4;168.33;6.93;55.55;3.05;3.06;2.4;2.4;401.91;54.13;35.71;172.72;171.5;33.26;62.02;62.41;55.54;403.72;1.89;-0.55;0.33;-0.83;-0.83;0.34;-0.08;-0.07;-0.56;1.89;-0.26;-0.03;1498.8;1272.18;1272.18;786.91;786.91;65.57;128.32;128.32;37.77;37.77;6.38;4.21;6.49;5.23;1.35;3.89;4.92;1.35;3.98;6.38;4.21;6.49;825.6;886.42;42.16;1.85;865.09;4.21;0.06;0.03;0.03;1.34;38.17;66.77;-0.06;-0.42;-0.24;0.01;1717.68;62.32;301.43;285.08;24.66;1.44;272.37;3.19;0.83;0.14;0.12
194;R203;L4-4-S90;c1(cc2c(c(c1OP(c1ccccc1)c1ccccc1)c1c(c(cc3c1cccc3)c1cc(cc(c1)C)C)OP(c1ccccc1)c1ccccc1)cccc2)c1cc(cc(c1)C)C.C(=C(\NC(=O)C)/c1ccccc1)\C(=O)OC.OCC;;99;50;1.09;1.41;1.38;1.49;1.38;1.38;1.41;1.09;1.38;118.52;117.94;122.49;118.43;118.56;120.05;119.55;117.94;118.36;122.34;0.22;178.66;178.87;0.51;178.71;0.63;52.79;2.59;2.58;2.39;2.39;23.34;62.04;35.74;141.47;172.69;34.82;59.31;58.56;61.09;23.28;0.27;-0.28;0.32;-0.83;-0.83;0.32;-0.08;-0.09;-0.28;0.27;-0.25;-0.02;1526.26;1384.46;1384.46;3232.51;3223.89;97.91;163.72;163.72;6.73;5.36;2;1;1;9.98;2.57;3.87;5.29;1.35;9.75;2;1;1;434.28;449.7;15.51;1.53;447.47;2.21;0.23;0.08;0.07;1.35;57.04;62.91;-0.2;0.05;-0.27;-0.02;1751.43;44.03;251.68;229.55;41.26;1.39;219.24;2.78;0.77;0.35;0.26
195;R204;L4-5-S90;c1(cc2c(c(c1OP(c1cc(cc(c1)C)C)c1cc(cc(c1)C)C)c1c(c(cc3c1cccc3)c1ccccc1)OP(c1cc(cc(c1)C)C)c1cc(cc(c1)C)C)cccc2)c1ccccc1.C(=C(\NC(=O)C)/c1ccccc1)\C(=O)OC.OCC;;97;50;1.09;1.41;1.38;1.49;1.38;1.37;1.41;1.09;1.38;118.48;117.78;122.54;118.5;118.65;120.16;119.65;117.78;118.28;122.33;0.3;178.6;178.54;0.5;178.49;0.64;52.7;2.59;2.58;2.39;2.38;23.31;61.96;35.28;144.98;171.09;34.37;59.61;58.63;61.01;23.33;0.27;-0.28;0.32;-0.83;-0.83;0.32;-0.08;-0.09;-0.28;0.27;-0.25;-0.02;1525.7;1384.93;1384.93;3229.56;3224.53;97.82;171.4;171.4;4.78;5.87;2;1;1;7.17;1.96;3.87;5.39;1.35;6.38;2;1;1;392.51;397.44;15.44;1.5;387.42;2.49;0.24;0.15;0.11;1.35;57.04;62.91;-0.2;0.05;-0.27;-0.02;1751.43;44.03;251.68;229.55;41.26;1.39;219.24;2.78;0.77;0.35;0.26
196;R205;L4-4-S91;c1(cc2c(c(c1OP(c1ccccc1)c1ccccc1)c1c(c(cc3c1cccc3)c1cc(cc(c1)C)C)OP(c1ccccc1)c1ccccc1)cccc2)c1cc(cc(c1)C)C.C(=C(\NC(=O)C)/c1ccc(cc1)F)\C(=O)OC.OCC;;99;50;1.09;1.41;1.38;1.49;1.38;1.38;1.41;1.09;1.38;118.5;117.86;122.5;118.55;118.62;120.11;119.62;117.86;118.34;122.34;0.3;178.66;178.73;0.87;178.3;0.59;52.85;2.59;2.58;2.39;2.39;23.32;62.09;35.87;141.95;172.27;34.95;59.14;58.58;60.9;23.33;0.27;-0.28;0.32;-0.83;-0.83;0.32;-0.08;-0.09;-0.28;0.27;-0.25;-0.02;1526.07;1384.71;1384.71;3228.01;3224.58;102.04;176.82;176.82;7.88;3.18;2;1;1;11.65;2.09;5.32;4.58;1.35;11.78;2;1;1;466.57;480.84;17.67;1.57;476.52;1.18;0.21;0.06;0.05;1.34;87.83;44.15;-0.49;0.14;-0.27;0;1734.31;52.87;218.94;196.14;21.97;1.34;195.65;3.63;2.11;0.28;0.25
197;R206;L4-4-S92;c1(cc2c(c(c1OP(c1ccccc1)c1ccccc1)c1c(c(cc3c1cccc3)c1cc(cc(c1)C)C)OP(c1ccccc1)c1ccccc1)cccc2)c1cc(cc(c1)C)C.C(=C(\NC(=O)C)/c1ccc(cc1)Cl)\C(=O)OC.OCC;;97;50;1.09;1.41;1.37;1.49;1.38;1.38;1.41;1.09;1.38;118.29;117.64;122.25;118.76;118.48;119.61;120.11;117.91;118.46;122.45;0.25;178.41;178.36;0.04;178.64;0.49;52.67;2.58;2.59;2.39;2.39;23.3;61.12;34.48;141.59;169.68;35.55;58.62;59.44;62.03;23.31;0.27;-0.28;0.32;-0.83;-0.83;0.32;-0.08;-0.09;-0.28;0.27;-0.25;-0.02;1521.61;1252;1280.81;3225.36;3233.88;104.79;45.37;141.12;5.43;10.07;2;1;1;7.75;2.01;3.87;4.65;1.35;7.56;2;1;1;392.82;402.68;15.6;1.49;399.43;2.59;0.24;0.13;0.1;1.28;12.71;-97.84;0.34;-0.49;-0.26;-0.02;1761.77;386.14;267.79;252.64;10.76;1.39;225.29;3.38;1.08;0.25;0.22
198;R207;L4-4-S93;c1(cc2c(c(c1OP(c1ccccc1)c1ccccc1)c1c(c(cc3c1cccc3)c1cc(cc(c1)C)C)OP(c1ccccc1)c1ccccc1)cccc2)c1cc(cc(c1)C)C.C(=C(\NC(=O)C)/c1ccc(cc1)Br)\C(=O)OC.OCC;;97;50;1.09;1.41;1.38;1.49;1.38;1.38;1.41;1.09;1.38;118.5;117.86;122.5;118.55;118.62;120.11;119.62;117.86;118.34;122.34;0.3;178.66;178.73;0.87;178.3;0.59;52.85;2.59;2.58;2.39;2.39;23.32;62.09;35.87;141.95;172.27;34.95;59.14;58.58;60.9;23.33;0.27;-0.28;0.32;-0.83;-0.83;0.32;-0.08;-0.09;-0.28;0.27;-0.25;-0.02;1526.07;1384.71;1384.71;3228.01;3224.58;102.04;176.82;176.82;7.88;3.18;2;1;1;11.65;2.09;5.32;4.58;1.35;11.78;2;1;1;466.57;480.84;17.67;1.57;476.52;1.18;0.21;0.06;0.05;1.35;57.04;62.91;-0.2;0.05;-0.27;-0.02;1751.43;44.03;251.68;229.55;41.26;1.39;219.24;2.78;0.77;0.35;0.26
199;R208;L4-4-S94;c1(cc2c(c(c1OP(c1ccccc1)c1ccccc1)c1c(c(cc3c1cccc3)c1cc(cc(c1)C)C)OP(c1ccccc1)c1ccccc1)cccc2)c1cc(cc(c1)C)C.C(=C(\NC(=O)C)/c1ccc(cc1)C)\C(=O)OC.OCC;;99;50;1.4;1.43;1.86;1.5;1.4;1.86;1.42;1.4;1.39;118.72;115.59;116.88;121.5;120.04;115.86;126.92;127.06;120.88;117.03;0.95;172.66;169.26;0.31;171.34;6.12;76.2;2.94;3.27;2.79;2.94;90.73;35.54;46.14;375.83;389.03;45.16;37.47;40.28;32.59;71.7;-0.56;0.29;-0.35;0.9;0.91;-0.36;-0.01;-0.03;0.3;-0.56;-0.25;-0.03;1095.76;1171.49;1164.96;1236.8;1257.87;6.03;320.99;144.9;204.5;131.21;6.23;1.69;4.25;7.12;2.38;5.84;7.12;2.38;5.84;6.23;1.69;4.25;782.75;861.63;33.9;1.79;822.92;4.19;0.06;0.04;0.04;1.33;80.81;50.47;-0.44;0.03;-0.3;0.01;1741.77;389.88;173.2;146;44.92;1.29;143.14;8.49;2.06;1;0.92
200;R209;L4-4-S95;c1(cc2c(c(c1OP(c1ccccc1)c1ccccc1)c1c(c(cc3c1cccc3)c1cc(cc(c1)C)C)OP(c1ccccc1)c1ccccc1)cccc2)c1cc(cc(c1)C)C.C(=C(\NC(=O)C)/c1ccc(cc1)OC)\C(=O)OC.OCC;;99;50;1.09;1.41;1.37;1.49;1.38;1.38;1.41;1.09;1.38;118.29;117.64;122.25;118.76;118.48;119.61;120.11;117.91;118.46;122.45;0.25;178.41;178.36;0.04;178.64;0.49;52.67;2.58;2.59;2.39;2.39;23.3;61.12;34.48;141.59;169.68;35.55;58.62;59.44;62.03;23.31;0.27;-0.28;0.32;-0.83;-0.83;0.32;-0.08;-0.09;-0.28;0.27;-0.25;-0.02;1521.61;1252;1280.81;3225.36;3233.88;104.79;45.37;141.12;5.43;10.07;2;1;1;7.75;2.01;3.87;4.65;1.35;7.56;2;1;1;392.82;402.68;15.6;1.49;399.43;2.59;0.24;0.13;0.1;1.28;14.83;-110.19;0.33;-0.49;-0.25;-0.01;1759.93;336.78;325.1;306.92;24.61;1.48;285.34;1.67;0.65;0.14;0.12
201;R210;L4-4-S96;c1(cc2c(c(c1OP(c1ccccc1)c1ccccc1)c1c(c(cc3c1cccc3)c1cc(cc(c1)C)C)OP(c1ccccc1)c1ccccc1)cccc2)c1cc(cc(c1)C)C.C(=C(\NC(=O)C)/c1ccccc1C)\C(=O)OC.OCC;;96;50;1.09;1.41;1.38;1.49;1.38;1.37;1.41;1.09;1.38;118.46;117.75;122.5;118.43;118.61;120.13;119.72;117.75;118.3;122.34;0.49;178.65;178.46;0.38;178.49;0.71;52.56;2.59;2.58;2.39;2.39;23.31;61.99;35.48;140.79;169.69;34.53;59.37;58.69;60.91;23.32;0.27;-0.28;0.32;-0.83;-0.83;0.32;-0.08;-0.09;-0.28;0.27;-0.25;-0.02;1525.5;1385.31;1385.31;3225.62;3224.92;99.41;192.88;192.88;5.62;6.31;2;1;1;7.72;2;3.86;4.58;1.35;7.56;2;1;1;392.45;402.63;15.53;1.49;399.43;2.62;0.24;0.13;0.1;1.34;60.87;46.82;-0.23;0.14;-0.26;0.01;1755.29;52.32;242.74;219.07;23.25;1.38;189.26;4.78;0.86;0.51;0.36
202;R211;L4-4-S97;c1(cc2c(c(c1OP(c1ccccc1)c1ccccc1)c1c(c(cc3c1cccc3)c1cc(cc(c1)C)C)OP(c1ccccc1)c1ccccc1)cccc2)c1cc(cc(c1)C)C.C(=C(\NC(=O)C)/c1ccccc1OC)\C(=O)OC.OCC;;80;50;1.49;1.43;1.38;1.49;1.38;1.37;1.43;1.49;1.38;121.56;119.48;121.56;120.98;120.03;122.67;118.96;116.11;121.97;121.14;3.49;176.17;175.1;8.46;177.17;5.91;73.91;2.89;2.83;2.43;2.38;44.48;43.48;30.97;228.77;227.93;36.38;59.86;58.22;44.65;44.08;-0.06;-0.08;0.36;-0.81;-0.81;0.36;-0.09;-0.08;-0.07;-0.05;-0.25;-0.02;1050.05;1269.46;1269.46;1211.73;1211.73;61.95;241.46;241.46;98.16;98.16;6.33;1.62;4.37;7.48;1.52;6.53;7.48;1.52;6.53;6.33;1.62;4.37;823.83;917.16;6.67;1.8;862.99;1.12;0.05;0.04;0.03;1.36;85.04;35.66;-0.41;0.24;-0.28;-0.03;1703.3;820.78;274.96;255.65;48.46;1.41;249.27;4.25;0.59;0.31;0.24
203;R212;L4-4-S98;c1(cc2c(c(c1OP(c1ccccc1)c1ccccc1)c1c(c(cc3c1cccc3)c1cc(cc(c1)C)C)OP(c1ccccc1)c1ccccc1)cccc2)c1cc(cc(c1)C)C.C(=C(\NC(=O)C)/c1ccccc1)\C(=O)OCC.OCC;;98;50;1.89;1.42;1.39;1.49;1.38;1.39;1.42;1.89;1.38;121.44;116.75;124.27;120.59;120.8;118.7;118.8;116.9;121.38;126.43;6.06;168.9;169.59;2.52;168.46;6.82;55.41;3.06;3.06;2.4;2.4;401.48;53.9;35.58;172.54;170.63;33.04;61.94;62.34;55.45;403.43;1.89;-0.55;0.33;-0.83;-0.83;0.34;-0.08;-0.07;-0.55;1.89;-0.26;-0.03;1499.06;1274.15;1274.15;787.05;787.05;63.17;114.92;114.92;37.12;37.12;6.38;4.21;6.49;5.23;1.35;3.89;4.92;1.35;3.98;6.38;4.21;6.49;824.76;886.08;41.75;1.85;865.09;4.07;0.06;0.03;0.03;1.34;32.39;68.3;-0.05;-0.43;-0.25;0.01;1724.35;47.35;262.8;248.23;24.64;1.38;226.28;3.7;1.1;0.25;0.23
204;R213;L4-4-S99;c1(cc2c(c(c1OP(c1ccccc1)c1ccccc1)c1c(c(cc3c1cccc3)c1cc(cc(c1)C)C)OP(c1ccccc1)c1ccccc1)cccc2)c1cc(cc(c1)C)C.C(=C(\NC(=O)C)/c1ccc(cc1)F)\C(=O)OCC.OCC;;98;50;1.89;1.42;1.4;1.49;1.38;1.39;1.42;1.89;1.38;121.25;116.69;124.35;120.56;120.86;118.68;118.77;116.82;121.3;125.99;6.99;167.89;169.07;2.4;168.33;6.93;55.55;3.05;3.06;2.4;2.4;401.91;54.13;35.71;172.72;171.5;33.26;62.02;62.41;55.54;403.72;1.89;-0.55;0.33;-0.83;-0.83;0.34;-0.08;-0.07;-0.56;1.89;-0.26;-0.03;1498.8;1272.18;1272.18;786.91;786.91;65.57;128.32;128.32;37.77;37.77;6.38;4.21;6.49;5.23;1.35;3.89;4.92;1.35;3.98;6.38;4.21;6.49;825.6;886.42;42.16;1.85;865.09;4.21;0.06;0.03;0.03;1.34;36.7;67.43;-0.05;-0.42;-0.25;0.01;1724.73;53;374.5;354.85;12.13;1.55;312.49;2.74;0.38;0.15;0.12
205;R214;L4-4-S100;c1(cc2c(c(c1OP(c1ccccc1)c1ccccc1)c1c(c(cc3c1cccc3)c1cc(cc(c1)C)C)OP(c1ccccc1)c1ccccc1)cccc2)c1cc(cc(c1)C)C.C(=C(\NC(=O)C)/c1ccc(cc1)Cl)\C(=O)OCC.OCC;;95;50;1.89;1.42;1.39;1.49;1.38;1.39;1.42;1.89;1.38;121.46;116.67;124.23;120.61;120.76;118.79;118.9;116.84;121.34;126.32;5.26;169.56;169.68;2.54;168.54;6.88;55.12;3.06;3.06;2.39;2.39;400.14;53.23;35.17;172.26;169.02;32.7;61.86;62.5;55.19;402.62;1.89;-0.55;0.34;-0.83;-0.83;0.34;-0.08;-0.08;-0.55;1.89;-0.26;-0.02;1500.02;1277.44;1277.44;787.23;787.23;53.53;96.13;96.13;28.97;28.97;6.38;4.21;6.49;5.23;1.35;3.89;4.92;1.35;3.98;6.38;4.21;6.49;822.12;885.73;40.59;1.84;865.09;3.57;0.06;0.03;0.03;1.34;32.35;68.86;-0.04;-0.42;-0.25;0.01;1727.08;38.41;262.75;248.15;24.59;1.38;226.28;3.41;1.1;0.25;0.23
206;R215;L4-4-S101;c1(cc2c(c(c1OP(c1ccccc1)c1ccccc1)c1c(c(cc3c1cccc3)c1cc(cc(c1)C)C)OP(c1ccccc1)c1ccccc1)cccc2)c1cc(cc(c1)C)C.C(=C\C(=O)OCC)(/c1ccc(cc1)Br)\NC(=O)C.OCC;;93;50;1.09;1.41;1.38;1.49;1.38;1.37;1.42;1.09;1.38;118.39;117.82;122.55;118.62;119.08;120.68;119.62;117.82;118.14;122.13;0.06;178.8;178.33;0.62;177.55;0.22;52.28;2.59;2.57;2.39;2.38;23.34;62.07;35.57;146.05;167.21;33.81;60.05;58.99;60.5;23.25;0.27;-0.28;0.32;-0.83;-0.83;0.33;-0.08;-0.09;-0.28;0.27;-0.25;-0.02;1521.67;1252.37;1252.37;3235.76;3237.19;99.89;154.52;154.52;4.27;4.58;2;1;1;8.84;1.47;3.89;4.93;1.35;7.63;2;1;1;408.26;420.03;15.68;1.51;413.46;2.65;0.24;0.11;0.09;1.33;51.89;50.27;-0.36;-0.16;-0.32;0;1752.73;50.1;191.24;161.83;39.33;1.33;158.15;3.83;2.56;0.51;0.44
207;R216;L4-1-S2;c1cc2c(c(c1OP(c1ccccc1)c1ccccc1)c1c(ccc3c1cccc3)OP(c1ccccc1)c1ccccc1)cccc2.C=C(NC(=O)C)C(=O)OC.c1(ccccc1)C;;73.2;24;1.09;1.41;1.37;1.49;1.38;1.36;1.42;1.09;1.38;118.88;119.57;121.85;118.62;120.57;126.06;118.57;112.88;117.47;121.04;0.38;179.65;176.76;3.69;177.86;0.69;71.8;2.63;5.03;2.41;2.32;23.59;63.01;28.04;213.44;214.34;35.71;66.41;61.13;62.22;24.47;0.26;-0.28;0.35;-0.8;-0.81;0.35;-0.1;-0.1;-0.27;0.26;-0.25;-0.01;1227.12;1306.47;1294.72;3224.79;3238.78;2.43;53.03;114.16;8.21;3.13;2;1;1;7.48;1.52;6.53;7.48;1.52;6.53;2;1;1;641.21;682.86;7.56;1.71;654.69;1.43;0.08;0.06;0.05;1.33;86.86;47.29;-0.47;0.05;-0.29;0.02;1753.9;139.7;172.01;145.99;44.2;1.28;143.14;6.34;2.04;1.01;0.92
208;R217;L4-2-S2;c1(cc2c(c(c1OP(c1ccccc1)c1ccccc1)c1c(c(cc3c1cccc3)C)OP(c1ccccc1)c1ccccc1)cccc2)C.C=C(NC(=O)C)C(=O)OC.c1(ccccc1)C;;94.8;24;1.5;1.43;1.38;1.49;1.38;1.37;1.43;1.5;1.38;120.66;119.15;122.07;119.82;119.76;124.04;118.7;113.57;118.77;122.27;1.9;178.48;178.18;2.36;175.07;1.02;68.12;2.86;2.7;2.42;2.34;171.71;51.37;28.88;223.65;231.75;34.79;62.87;59.93;49.15;173.78;-0.72;-0.06;0.36;-0.81;-0.81;0.36;-0.09;-0.09;-0.05;-0.71;-0.25;-0.01;1249.86;1281.58;1281.58;1147.93;1145.58;24.87;222.83;222.83;50.98;62.2;3;1.5;2.03;7.48;1.52;6.53;7.48;1.52;6.53;3;1.5;2.03;657.97;716.17;6.12;1.7;682.74;0.64;0.07;0.06;0.05;1.33;86.86;47.29;-0.47;0.05;-0.29;0.02;1753.9;139.7;172.01;145.99;44.2;1.28;143.14;6.34;2.04;1.01;0.92
209;R218;L4-3-S2;c1(cc2c(c(c1OP(c1ccccc1)c1ccccc1)c1c(c(cc3c1cccc3)c1ccccc1)OP(c1ccccc1)c1ccccc1)cccc2)c1ccccc1.C=C(NC(=O)C)C(=O)OC.c1(ccccc1)C;;99.9;24;1.49;1.43;1.38;1.49;1.38;1.36;1.44;1.49;1.38;120.02;118.38;121.94;120.1;120.23;123.64;119.54;114.79;122.14;121.49;6.16;178.26;175.58;5.46;173.14;9.92;79.75;2.83;2.81;2.41;2.36;43.03;42.76;29.13;235.07;222.47;35.5;62.22;57.72;48.74;44;-0.06;-0.08;0.37;-0.81;-0.81;0.37;-0.1;-0.08;-0.07;-0.06;-0.25;-0.01;1113.68;1285;1285;1337.08;1337.08;3.74;98.12;98.12;17.66;17.66;6.36;1.5;3.15;7.48;1.52;6.53;7.48;1.52;6.53;6.36;1.5;3.15;762.46;845.38;6.56;1.76;806.88;1.18;0.06;0.04;0.04;1.33;86.86;47.29;-0.47;0.05;-0.29;0.02;1753.9;139.7;172.01;145.99;44.2;1.28;143.14;6.34;2.04;1.01;0.92
210;R219;L4-4-S2;c1(cc2c(c(c1OP(c1ccccc1)c1ccccc1)c1c(c(cc3c1cccc3)c1cc(cc(c1)C)C)OP(c1ccccc1)c1ccccc1)cccc2)c1cc(cc(c1)C)C.C=C(NC(=O)C)C(=O)OC.c1(ccccc1)C;;95.4;24;1.49;1.43;1.38;1.49;1.38;1.37;1.43;1.49;1.38;121.57;119.51;121.5;120.91;120.03;122.75;118.99;116.07;121.85;121.11;3.14;176.5;175.16;8.61;176.29;6.72;73.42;2.89;2.82;2.42;2.38;44.47;43.17;30.48;226.4;226.07;35.69;59.66;58.24;43.93;44.01;-0.06;-0.07;0.36;-0.81;-0.81;0.37;-0.08;-0.08;-0.06;-0.05;-0.25;-0.01;1051.81;1276.09;1270.56;1215.96;1215.96;36.33;168.68;156.8;44.26;44.26;6.33;1.62;4.37;7.48;1.52;6.53;7.48;1.52;6.53;6.33;1.62;4.37;821.7;916.14;6.43;1.8;862.99;0.72;0.05;0.04;0.03;1.33;86.86;47.29;-0.47;0.05;-0.29;0.02;1753.9;139.7;172.01;145.99;44.2;1.28;143.14;6.34;2.04;1.01;0.92
211;R220;L4-5-S2;c1(cc2c(c(c1OP(c1cc(cc(c1)C)C)c1cc(cc(c1)C)C)c1c(c(cc3c1cccc3)c1ccccc1)OP(c1cc(cc(c1)C)C)c1cc(cc(c1)C)C)cccc2)c1ccccc1.C=C(NC(=O)C)C(=O)OC.c1(ccccc1)C;;93;24;1.5;1.43;1.38;1.49;1.38;1.38;1.42;1.5;1.38;119.09;116.93;122.83;118.97;118.78;119.02;120.22;117.85;119.27;123.11;0.1;177.94;176.04;0.56;179.81;1.61;53.05;2.78;2.8;2.39;2.4;174.92;50.47;34.07;145.81;170.46;35.66;58.5;60.65;50.47;173.89;-0.71;-0.06;0.34;-0.83;-0.83;0.33;-0.07;-0.08;-0.06;-0.72;-0.25;-0.01;1514.86;1268.57;1281.21;1142.19;1133.9;69.11;55.67;224.42;73.62;49.91;2.99;1.5;2.04;9.68;1.35;11.12;10.56;1.66;8.01;2.99;1.5;2.04;661.57;689.16;14.09;1.75;661.72;4.6;0.1;0.04;0.04;1.28;16.13;-127.69;0.33;-0.47;-0.27;-0.06;1764.28;222.5;265.88;247.43;44.46;1.39;240.26;6.42;1.62;0.15;0.14
212;R221;L4-2-S3;c1(cc2c(c(c1OP(c1ccccc1)c1ccccc1)c1c(c(cc3c1cccc3)C)OP(c1ccccc1)c1ccccc1)cccc2)C.C(=C)(c1ccccc1)NC(=O)C.O1CCCC1;;67.2;24;1.5;1.43;1.38;1.49;1.38;1.37;1.43;1.5;1.38;120.74;119.19;122.08;119.82;119.77;124.08;118.65;113.56;118.81;122.25;1.61;178.35;177.92;2.41;175.38;0.82;68.68;2.87;2.7;2.42;2.34;172.16;51.13;28.79;223.7;232.36;34.82;63.14;60.11;48.76;174.17;-0.72;-0.06;0.36;-0.81;-0.81;0.36;-0.09;-0.09;-0.05;-0.71;-0.25;-0.01;1321.93;1274.73;1278.2;1193.69;1193.69;15.69;234.25;277.63;57.46;57.46;3;1.5;2.03;7.48;1.52;6.53;7.48;1.52;6.53;3;1.5;2.03;658.69;716.58;6.23;1.7;682.74;0.9;0.07;0.06;0.05;1.34;84.04;38.68;-0.48;0.15;-0.27;0.01;1736.36;157.22;203.2;182.46;23.73;1.31;161.2;4.14;1.7;0.65;0.54
213;R222;L4-3-S3;c1(cc2c(c(c1OP(c1ccccc1)c1ccccc1)c1c(c(cc3c1cccc3)c1ccccc1)OP(c1ccccc1)c1ccccc1)cccc2)c1ccccc1.C(=C)(c1ccccc1)NC(=O)C.O1CCCC1;;94.3;24;1.49;1.42;1.38;1.49;1.38;1.36;1.44;1.49;1.38;119.89;118.54;121.95;120.07;121.24;125.48;119.5;113.38;122.01;121.13;4.04;177.26;175.54;4.4;173.73;7.56;88.45;2.83;2.78;2.41;2.34;42.83;43.89;28.03;233.67;212.14;36.2;66.33;58.15;50.27;44.48;-0.06;-0.08;0.36;-0.81;-0.8;0.38;-0.11;-0.09;-0.07;-0.06;-0.25;-0.01;1111.83;1280.38;1280.38;1332.87;1332.87;14.73;156.21;156.21;26.89;26.89;6.36;1.5;3.15;7.48;1.52;6.53;7.48;1.52;6.53;6.36;1.5;3.15;763.3;846.47;6.88;1.76;806.88;1.34;0.06;0.04;0.04;1.34;84.04;38.68;-0.48;0.15;-0.27;0.01;1736.36;157.22;203.2;182.46;23.73;1.31;161.2;4.14;1.7;0.65;0.54
214;R223;L4-4-S3;c1(cc2c(c(c1OP(c1ccccc1)c1ccccc1)c1c(c(cc3c1cccc3)c1cc(cc(c1)C)C)OP(c1ccccc1)c1ccccc1)cccc2)c1cc(cc(c1)C)C.C(=C)(c1ccccc1)NC(=O)C.O1CCCC1;;89.4;24;1.09;1.41;1.38;1.49;1.38;1.38;1.41;1.09;1.38;118.37;117.01;122.63;119.16;118.76;119.34;120.33;117.97;118.51;122.68;1.19;177.2;177.13;0.37;178.8;0.17;52.97;2.57;2.59;2.38;2.39;23.24;61.75;35.45;139.68;159.85;37.25;58.77;0.12;62.2;23.31;0.28;-0.28;0.32;-0.83;-0.84;0.31;-0.08;-0.08;-0.28;0.28;-0.25;-0.02;1523.44;1251.73;1279.56;3232.85;3229.84;89.89;130.68;163.93;1.46;2.7;2;1;1;4.86;1.35;5.88;4.31;1.35;6.33;2;1;1;367.38;374.12;21.11;1.46;374.38;3.27;0.25;0.18;0.12;1.34;42.65;89.35;0.15;-0.5;-0.27;0.01;1733.89;52.63;203.37;182.54;21.95;1.31;161.2;5.17;2.3;0.5;0.43